LAMMPS (28 Mar 2023 - Update 1)
OMP_NUM_THREADS environment is not set. Defaulting to 1 thread. (src/comm.cpp:98)
  using 1 OpenMP thread(s) per MPI task
# LAMMPS input script using real units

units real
atom_style charge
boundary p p p

# Create lattice (Note: Adjust the lattice parameters as necessary)
lattice custom 5.411 basis 0.00 0.00 0.00                      basis 0.00 0.50 0.50                      basis 0.50 0.00 0.50                      basis 0.50 0.50 0.00                      basis 0.25 0.75 0.75                      basis 0.75 0.25 0.25                      basis 0.25 0.25 0.25                      basis 0.75 0.75 0.75                      basis 0.75 0.75 0.25                      basis 0.25 0.25 0.75                      basis 0.75 0.25 0.75                      basis 0.25 0.75 0.25
Lattice spacing in x,y,z = 5.411 5.411 5.411
region box block 0 8 0 8 0 8
create_box 2 box
Created orthogonal box = (0 0 0) to (43.288 43.288 43.288)
  2 by 2 by 2 MPI processor grid
create_atoms 1 box basis 1 1 basis 2 1 basis 3 1 basis 4 1                    basis 5 2 basis 6 2 basis 7 2 basis 8 2 basis 9 2 basis 10 2 basis 11 2 basis 12 2
Created 6144 atoms
  using lattice units in orthogonal box = (0 0 0) to (43.288 43.288 43.288)
  create_atoms CPU = 0.002 seconds

# Mass of Ce and O in atomic units
mass 1 140.116   # Cerium
mass 2 15.999    # Oxygen

# Set charges for the atom types
set type 1 charge 4.0   # Charge for Cerium (Ce)
Setting atom values ...
  2048 settings made for charge
set type 2 charge -2.0  # Charge for Oxygen (O)
Setting atom values ...
  4096 settings made for charge

# Naming atom types for OVITO visualization
group Ce type 1
2048 atoms in group Ce
group O type 2
4096 atoms in group O

# Dump the initial configuration
dump init all custom 1 initial_config.lammpstrj id element x y z vx vy vz
dump_modify init element Ce O first yes
run 0
WARNING: No fixes with time integration, atoms won't move (src/verlet.cpp:60)
WARNING: No pairwise cutoff or binsize set. Atom sorting therefore disabled. (src/atom.cpp:2355)
WARNING: Communication cutoff is 0.0. No ghost atoms will be generated. Atoms may get lost. (src/comm_brick.cpp:210)
Per MPI rank memory allocation (min/avg/max) = 3.719 | 3.719 | 3.719 Mbytes
   Step          Temp          E_pair         E_mol          TotEng         Press     
         0   0              0              0              0              0            
Loop time of 2.51575e-06 on 8 procs for 0 steps with 6144 atoms

104.3% CPU use with 8 MPI tasks x 1 OpenMP threads

MPI task timing breakdown:
Section |  min time  |  avg time  |  max time  |%varavg| %total
---------------------------------------------------------------
Pair    | 0          | 0          | 0          |   0.0 |  0.00
Neigh   | 0          | 0          | 0          |   0.0 |  0.00
Comm    | 0          | 0          | 0          |   0.0 |  0.00
Output  | 0          | 0          | 0          |   0.0 |  0.00
Modify  | 0          | 0          | 0          |   0.0 |  0.00
Other   |            | 2.516e-06  |            |       |100.00

Nlocal:            768 ave         768 max         768 min
Histogram: 8 0 0 0 0 0 0 0 0 0
Nghost:            109 ave         109 max         109 min
Histogram: 8 0 0 0 0 0 0 0 0 0
Neighs:              0 ave           0 max           0 min
Histogram: 8 0 0 0 0 0 0 0 0 0

Total # of neighbors = 0
Ave neighs/atom = 0
Neighbor list builds = 0
Dangerous builds = 0
undump init

# Stop LAMMPS after generating the initial dump file for debugging
# quit

# Buckingham potential with Coulombic term  # TODO: Convert to real units
pair_style buck/coul/long 10.0
pair_coeff 1 1 0.0 1.0 0.0
pair_coeff 1 2 11.350e4 0.3810 0.0
pair_coeff 2 2 21.960e5 0.1490 2.691e3
# pair_coeff 1 1 A1 B1 C1
# pair_coeff 1 2 A12 B12 C12
# pair_coeff 2 2 A2 B2 C2

# Note: The parameters A, B, and C need to be provided for Ce-Ce, Ce-O, and O-O interactions.
# A = repulsive potential coefficient
# B = repulsive potential exponent
# C = van der Waals interaction coefficient
# Replace A1, B1, C1, A12, B12, C12, A2, B2, and C2 with their respective values.

kspace_style ewald 1.0e-4

# Timestep of 1 fs (since we are using real units)
timestep 1.0

# Loop over temperatures from 2000 K to 4000 K in increments of 200 K
variable temp index 2000 2200 2400 2600 2800 3000 3200 3400 3600 3800 4000
label loop_temperature

# Set velocities for initial temperature of ${temp} K
velocity all create ${temp} 87287 loop geom
velocity all create 2000 87287 loop geom

# Apply NPT ensemble with P = 1 atm, T = ${temp} K, timestep = 1.0 fs, temperature damping = 100 fs (100x timestep), pressure damping = 1000 fs (1000x timestep)
fix 1 all npt temp ${temp} ${temp} 100.0 iso 1.0 1.0 1000.0
fix 1 all npt temp 2000 ${temp} 100.0 iso 1.0 1.0 1000.0
fix 1 all npt temp 2000 2000 100.0 iso 1.0 1.0 1000.0
thermo 100
thermo_style custom step pe ke etotal temp press vol

# Output dump
dump 1 all custom 100 dump_${temp}K.lammpstrj id element x y z vx vy vz
dump 1 all custom 100 dump_2000K.lammpstrj id element x y z vx vy vz
dump_modify 1 element Ce O

# Run the simulation for 10000 steps
run 10000
Ewald initialization ...
  using 12-bit tables for long-range coulomb (src/kspace.cpp:342)
  G vector (1/distance) = 0.3088922
  estimated absolute RMS force accuracy = 0.034397518
  estimated relative force accuracy = 0.0001035871
  KSpace vectors: actual max1d max3d = 5756 14 12194
                  kxmax kymax kzmax  = 14 14 14
Generated 0 of 1 mixed pair_coeff terms from geometric mixing rule
Neighbor list info ...
  update: every = 1 steps, delay = 0 steps, check = yes
  max neighbors/atom: 2000, page size: 100000
  master list distance cutoff = 12
  ghost atom cutoff = 12
  binsize = 6, bins = 8 8 8
  1 neighbor lists, perpetual/occasional/extra = 1 0 0
  (1) pair buck/coul/long, perpetual
      attributes: half, newton on
      pair build: half/bin/atomonly/newton
      stencil: half/bin/3d
      bin: standard
Per MPI rank memory allocation (min/avg/max) = 29.01 | 29.01 | 29.01 Mbytes
   Step         PotEng         KinEng         TotEng          Temp          Press          Volume    
         0  -1954078.8      36622.232     -1917456.6      2000           5199770.3      81115.26     
       100  -3156746.2      122703.11     -3034043.1      6701.0173      1291866.4      105128.86    
       200  -3431958.6      111983.22     -3319975.4      6115.587       771782.81      120783.13    
       300  -3584003        87406.932     -3496596.1      4773.4355      472528.48      134769.01    
       400  -3669647.1      69694.186     -3599952.9      3806.1135      293565.92      146812.11    
       500  -3718369.7      56477.88      -3661891.8      3084.3494      187684.57      157042.85    
       600  -3747736.1      47761.709     -3699974.4      2608.345       121637.74      165616.33    
       700  -3764894.1      41266.181     -3723627.9      2253.6136      78418.437      172639.42    
       800  -3775541.7      37696.771     -3737844.9      2058.6823      51312.624      178268.41    
       900  -3781999.8      35394.147     -3746605.7      1932.9323      33814.604      182798.05    
      1000  -3785207.7      34554.822     -3750652.9      1887.0953      23461.679      186432.3     
      1100  -3786497.7      36103.232     -3750394.5      1971.6565      16625.987      189389.47    
      1200  -3785252.9      36922.864     -3748330        2016.418       11359.219      191703.36    
      1300  -3785308        37864.336     -3747443.7      2067.8333      8549.8511      193528.28    
      1400  -3786910.8      37588.875     -3749321.9      2052.79        5518.1505      194880.08    
      1500  -3788161.6      35603.239     -3752558.4      1944.3511      3283.3773      195944.03    
      1600  -3790268.8      35676.949     -3754591.8      1948.3765      1732.2026      196650.85    
      1700  -3790615.4      35855.43      -3754760        1958.1237      1760.05        197086.72    
      1800  -3790966.9      37424.518     -3753542.4      2043.8142      1801.2719      197539.43    
      1900  -3789934        37229.671     -3752704.4      2033.1732      1421.7904      198124.29    
      2000  -3789939.5      36882.335     -3753057.1      2014.2046     -713.31078      198492.46    
      2100  -3791210.2      36958.243     -3754252        2018.3501     -2373.6652      198364.83    
      2200  -3792533        36962.974     -3755570        2018.6085     -598.71286      198072.73    
      2300  -3792365        35982.909     -3756382.1      1965.0855      2208.892       198031.87    
      2400  -3792880.9      36654.507     -3756226.4      2001.7626      759.06462      198409.34    
      2500  -3792247.2      36610.872     -3755636.4      1999.3796     -2244.1824      198760.77    
      2600  -3791807.6      36825.345     -3754982.3      2011.0923      918.7255       198542.45    
      2700  -3792225.2      36918.305     -3755306.9      2016.169       455.06447      198536.01    
      2800  -3793180.7      36558.395     -3756622.3      1996.5138     -667.84143      198697.64    
      2900  -3794171.2      36311.23      -3757860        1983.0156     -1002.187       198697.37    
      3000  -3793951.8      35580.002     -3758371.8      1943.0821      842.39966      198617.46    
      3100  -3794273.4      36383.443     -3757889.9      1986.9593     -1207.8053      198613.68    
      3200  -3794198.6      37019.571     -3757179        2021.6993      953.6817       198413.18    
      3300  -3793938.6      36626.909     -3757311.7      2000.2554      637.61307      198490.69    
      3400  -3794406.7      36451.545     -3757955.2      1990.6785     -401.84858      198560.68    
      3500  -3795124.4      36486.77      -3758637.7      1992.6022      851.05058      198293.18    
      3600  -3795522.2      36480.556     -3759041.7      1992.2628      142.1044       198579.81    
      3700  -3795590.1      36806.87      -3758783.2      2010.0833     -635.67791      198624.07    
      3800  -3794728.8      36621.824     -3758106.9      1999.9777     -1666.0064      198413.87    
      3900  -3794771.2      37268.256     -3757502.9      2035.2804      822.36111      198056.31    
      4000  -3794594.5      36925.37      -3757669.1      2016.5548      628.8292       198256.49    
      4100  -3795059.7      36567.636     -3758492.1      1997.0184      530.73816      198611.32    
      4200  -3796371        36928.07      -3759443        2016.7023     -770.81952      198681.79    
      4300  -3796396.9      36506.987     -3759889.9      1993.7063      1136.5724      198492.75    
      4400  -3796065.3      36446.264     -3759619        1990.3901     -372.97549      198435.14    
      4500  -3795522.2      36703.127     -3758819.1      2004.4178      1150.0212      198334.13    
      4600  -3795487.8      37122.148     -3758365.7      2027.3012     -151.7802       198555.3     
      4700  -3795755.1      36952.232     -3758802.8      2018.0218     -257.76489      198679.28    
      4800  -3796172.2      36242.092     -3759930.1      1979.2399      607.9833       198589.28    
      4900  -3796676.4      36073.752     -3760602.6      1970.0466      1173.8173      198547.62    
      5000  -3797208.9      36723.807     -3760485.1      2005.5471      649.45416      198755.23    
      5100  -3796121.3      35940.606     -3760180.7      1962.7753     -233.28779      199013.52    
      5200  -3797026.3      37222.567     -3759803.7      2032.7853     -969.42649      198921.65    
      5300  -3796881.7      36829.72      -3760051.9      2011.3312      875.0051       198568.38    
      5400  -3796654.9      36220.973     -3760433.9      1978.0866      94.882064      198608.57    
      5500  -3797378.3      36831.178     -3760547.1      2011.4109     -279.61796      198641.04    
      5600  -3796901.7      36606.246     -3760295.5      1999.1269      205.70333      198477.11    
      5700  -3796941.8      36942.417     -3759999.4      2017.4858      974.64261      198484.75    
      5800  -3796760.1      36501.384     -3760258.8      1993.4003      1000.7856      198893.98    
      5900  -3797138.7      36302.705     -3760836        1982.5501     -41.417822      199238.17    
      6000  -3797578.5      36453.643     -3761124.8      1990.7931     -1222.3758      199181.62    
      6100  -3797266.4      36329.826     -3760936.5      1984.0312      463.90455      199043.15    
      6200  -3797337.7      36995.658     -3760342        2020.3934     -598.90833      199049.4     
      6300  -3796715.4      36943.046     -3759772.3      2017.5202      867.05779      198839.3     
      6400  -3796555.6      36615.77      -3759939.8      1999.6471      968.43835      198988.32    
      6500  -3797764.3      37042.927     -3760721.3      2022.9748      342.49247      199199.03    
      6600  -3797868.2      36473.311     -3761394.9      1991.8672     -645.76725      199360.91    
      6700  -3797205.8      35854.166     -3761351.6      1958.0546      650.0109       199108.73    
      6800  -3797715.5      37234.086     -3760481.4      2033.4143      207.20478      199050.86    
      6900  -3796529.7      36893.661     -3759636.1      2014.8232      514.36241      199085.6     
      7000  -3797113.1      37422.428     -3759690.7      2043.7         84.135979      199044.1     
      7100  -3797417.9      36716.778     -3760701.1      2005.1633     -1128.1422      199107.36    
      7200  -3798144.3      36459.441     -3761684.9      1991.1097      222.88588      199081.65    
      7300  -3798140.8      36239.885     -3761900.9      1979.1194     -604.62379      199115.17    
      7400  -3797387.6      36190.895     -3761196.7      1976.444       142.30918      198915.07    
      7500  -3797511.8      37176.741     -3760335.1      2030.2826     -20.854513      198886.59    
      7600  -3797208.4      37177.734     -3760030.7      2030.3369     -487.25907      199041.89    
      7700  -3797163        36624.173     -3760538.8      2000.106      -62.116241      199041.67    
      7800  -3797229.8      35705.066     -3761524.7      1949.9121      1392.5516      199013.13    
      7900  -3798137.4      36186.558     -3761950.8      1976.2071     -1116.6473      199077       
      8000  -3798487.8      36814.014     -3761673.8      2010.4735      1364.6056      198717.12    
      8100  -3798176.8      37062.447     -3761114.4      2024.0408     -109.51527      198930.76    
      8200  -3797721.1      36909.034     -3760812        2015.6627      200.51948      198926.36    
      8300  -3798387.7      37435.176     -3760952.5      2044.3962      1776.4192      198629.59    
      8400  -3797916.5      36388.456     -3761528.1      1987.2331      146.23443      198887.6     
      8500  -3798309        36090.288     -3762218.8      1970.9496     -1642.113       198920.73    
      8600  -3798862.8      36453.99      -3762408.8      1990.812       581.8512       198437.18    
      8700  -3798387.2      36398.679     -3761988.5      1987.7914      595.21332      198734.08    
      8800  -3798210.3      36843.153     -3761367.2      2012.0649     -158.0963       199207.04    
      8900  -3797799.1      36706.3       -3761092.8      2004.5911     -135.43162      199173.62    
      9000  -3798153.9      36848.18      -3761305.7      2012.3394     -1250.0745      199041.21    
      9100  -3798686.9      36535.494     -3762151.4      1995.2631      331.96885      198726.76    
      9200  -3798745.6      36181.385     -3762564.2      1975.9246      1656.6619      198567.98    
      9300  -3798907.6      36665.637     -3762242        2002.3704      1232.8987      198861.39    
      9400  -3797753.8      36262.35      -3761491.5      1980.3462     -960.06694      199287.83    
      9500  -3797976.3      37112.544     -3760863.8      2026.7767     -1855.368       199027.11    
      9600  -3798070.9      37174.272     -3760896.6      2030.1478     -668.78088      198476.81    
      9700  -3798279.9      36632.866     -3761647.1      2000.5807      2121.2742      198465.52    
      9800  -3799022.4      36453.972     -3762568.5      1990.811      -1218.1289      199239.89    
      9900  -3799055.9      36131.047     -3762924.9      1973.1756     -2020.6494      199190.69    
     10000  -3799054        36767.376     -3762286.6      2007.9265      657.20112      198422.97    
Loop time of 599.417 on 8 procs for 10000 steps with 6144 atoms

Performance: 1.441 ns/day, 16.650 hours/ns, 16.683 timesteps/s, 102.500 katom-step/s
98.7% CPU use with 8 MPI tasks x 1 OpenMP threads

MPI task timing breakdown:
Section |  min time  |  avg time  |  max time  |%varavg| %total
---------------------------------------------------------------
Pair    | 21.515     | 22.092     | 22.872     |   8.7 |  3.69
Kspace  | 522.22     | 525.53     | 531.44     |  14.0 | 87.67
Neigh   | 1.2299     | 1.2743     | 1.3146     |   2.5 |  0.21
Comm    | 40.418     | 45.986     | 49.318     |  46.4 |  7.67
Output  | 0.21643    | 0.21665    | 0.21715    |   0.1 |  0.04
Modify  | 2.9354     | 2.9629     | 2.9883     |   1.0 |  0.49
Other   |            | 1.354      |            |       |  0.23

Nlocal:            768 ave         773 max         756 min
Histogram: 1 0 0 0 0 0 0 4 1 2
Nghost:        3869.12 ave        3896 max        3846 min
Histogram: 2 1 0 1 0 0 1 1 1 1
Neighs:        85612.1 ave       88077 max       83372 min
Histogram: 1 3 0 0 0 0 0 2 1 1

Total # of neighbors = 684897
Ave neighs/atom = 111.47412
Neighbor list builds = 422
Dangerous builds = 0

# Unfix the previous fix to prepare for the next loop iteration
unfix 1

# Dump settings will be cleared with the unfix command, so we remove it
undump 1

# Next iteration
next temp
jump SELF loop_temperature

# Set velocities for initial temperature of ${temp} K
velocity all create ${temp} 87287 loop geom
velocity all create 2200 87287 loop geom

# Apply NPT ensemble with P = 1 atm, T = ${temp} K, timestep = 1.0 fs, temperature damping = 100 fs (100x timestep), pressure damping = 1000 fs (1000x timestep)
fix 1 all npt temp ${temp} ${temp} 100.0 iso 1.0 1.0 1000.0
fix 1 all npt temp 2200 ${temp} 100.0 iso 1.0 1.0 1000.0
fix 1 all npt temp 2200 2200 100.0 iso 1.0 1.0 1000.0
thermo 100
thermo_style custom step pe ke etotal temp press vol

# Output dump
dump 1 all custom 100 dump_${temp}K.lammpstrj id element x y z vx vy vz
dump 1 all custom 100 dump_2200K.lammpstrj id element x y z vx vy vz
dump_modify 1 element Ce O

# Run the simulation for 10000 steps
run 10000
Ewald initialization ...
  using 12-bit tables for long-range coulomb (src/kspace.cpp:342)
  G vector (1/distance) = 0.30156548
  estimated absolute RMS force accuracy = 0.044216631
  estimated relative force accuracy = 0.00013315707
  KSpace vectors: actual max1d max3d = 10239 17 21437
                  kxmax kymax kzmax  = 17 17 17
Generated 0 of 1 mixed pair_coeff terms from geometric mixing rule
Per MPI rank memory allocation (min/avg/max) = 34.61 | 34.61 | 34.61 Mbytes
   Step         PotEng         KinEng         TotEng          Temp          Press          Volume    
     10000  -3799076.1      40284.456     -3758791.6      2200           1562.1899      198422.97    
     10100  -3795961        38303.893     -3757657.1      2091.8383      72.535887      199250.41    
     10200  -3795243.9      39059.202     -3756184.7      2133.0869     -2241.3141      200370.06    
     10300  -3794577.7      39984.629     -3754593        2183.626      -400.83604      200077.39    
     10400  -3793930.5      40408.69      -3753521.8      2206.7847      1883.9379      199421.44    
     10500  -3793371        39985.823     -3753385.1      2183.6912     -644.23303      199727.49    
     10600  -3793998.3      40181.579     -3753816.7      2194.3817     -1445.3708      200060.12    
     10700  -3794396.8      40101.348     -3754295.5      2190.0002     -683.78126      199758.83    
     10800  -3794768.2      40071.524     -3754696.7      2188.3715      1211.9701      199197.69    
     10900  -3794619.2      40222.314     -3754396.9      2196.6063      1106.415       199347.49    
     11000  -3794114.2      40354.059     -3753760.1      2203.8012     -1562.4088      200101.71    
     11100  -3793782.6      40672.082     -3753110.5      2221.1689     -523.86738      200475.03    
     11200  -3794167.4      41016.112     -3753151.3      2239.9569     -63.522159      200366.66    
     11300  -3794386.1      40412.817     -3753973.3      2207.0101     -559.07896      200044.96    
     11400  -3794455.1      39552.93      -3754902.2      2160.0502      1826.7198      199569.12    
     11500  -3794760.2      40340.368     -3754419.9      2203.0535      1263.2658      199358.28    
     11600  -3794194.2      40401.41      -3753792.8      2206.3871      1043.0272      199722.3     
     11700  -3793337.5      39948.533     -3753388.9      2181.6547     -1056.5353      200456.92    
     11800  -3793453.4      40578.244     -3752875.2      2216.0443     -1522.0046      200334.48    
     11900  -3793298.2      41195.49      -3752102.7      2249.7531      1682.7168      199554.04    
     12000  -3793144.1      40955.708     -3752188.4      2236.6582      386.7969       199468.46    
     12100  -3794035.6      40671.757     -3753363.9      2221.1512     -381.75892      199846.08    
     12200  -3793961.2      40185.264     -3753775.9      2194.583      -1087.7258      199938.74    
     12300  -3794321.2      40440.746     -3753880.4      2208.5353      1125.5965      199291.79    
     12400  -3793757.7      39514.091     -3754243.6      2157.9291      1743.511       198927.01    
     12500  -3794698.2      39970.933     -3754727.3      2182.878      -1104.3001      199471.18    
     12600  -3794805.3      40000.252     -3754805.1      2184.4792     -1459.3199      199727.43    
     12700  -3794415        40604.132     -3753810.9      2217.458       409.02707      199508.66    
     12800  -3794094.7      40625.531     -3753469.1      2218.6267      710.15747      199602.49    
     12900  -3794198.7      40291.938     -3753906.8      2200.4086     -440.42415      200153.79    
     13000  -3794607        40112.29      -3754494.8      2190.5978     -1240.9508      200255.08    
     13100  -3795391.9      40197.406     -3755194.5      2195.2461      237.48391      199642.45    
     13200  -3795433.1      39112.663     -3756320.4      2136.0065     -77.973842      199118.39    
     13300  -3795805.1      39987.319     -3755817.7      2183.7729      338.44777      199011.74    
     13400  -3795091.5      39995.62      -3755095.9      2184.2262      780.31123      199469.42    
     13500  -3794571.1      40124.613     -3754446.5      2191.2707     -1428.6763      200210.93    
     13600  -3794463        40611.849     -3753851.2      2217.8795     -1538.4936      200116.36    
     13700  -3794160.7      40235.199     -3753925.5      2197.31        237.72215      199378.46    
     13800  -3795014.1      40545.333     -3754468.8      2214.247       3648.7622      199077       
     13900  -3794984.2      39668.191     -3755316        2166.3448     -2358.2685      200095.33    
     14000  -3795114.9      40246.34      -3754868.6      2197.9184     -1792.6439      200082.22    
     14100  -3794958.1      40451.631     -3754506.4      2209.1297      1533.877       199136.86    
     14200  -3795314.3      40678.726     -3754635.5      2221.5317      880.86216      199315.16    
     14300  -3794967.2      39933.483     -3755033.7      2180.8328     -595.05899      199945.87    
     14400  -3794803.2      39474.517     -3755328.7      2155.7679     -336.72003      199923.63    
     14500  -3795122.9      39619.164     -3755503.8      2163.6673     -116.51162      199563.41    
     14600  -3795182.3      40362.599     -3754819.7      2204.2675      617.1537       199260.51    
     14700  -3794862.7      40633.678     -3754229        2219.0716      2177.357       199188.49    
     14800  -3794446.3      40628.385     -3753817.9      2218.7825      98.476678      199450.56    
     14900  -3794294.4      39994.516     -3754299.9      2184.1659     -677.04136      199775.37    
     15000  -3795007.5      39703.682     -3755303.8      2168.283      -1363.6572      199965.63    
     15100  -3794989.2      39613.701     -3755375.5      2163.369       1305.0175      199635       
     15200  -3794884        39716.519     -3755167.5      2168.9841      1220.0614      199444.5     
     15300  -3795036.7      40207.531     -3754829.1      2195.799       512.21275      199582.76    
     15400  -3795136.8      40500.666     -3754636.2      2211.8076     -454.89195      199711.53    
     15500  -3794965.2      40319.383     -3754645.8      2201.9075      442.56565      199566.35    
     15600  -3794685        39757.125     -3754927.9      2171.2016     -175.8286       199488.72    
     15700  -3794951.2      39914.762     -3755036.4      2179.8104      264.55466      199545.6     
     15800  -3794867.2      40431.295     -3754435.9      2208.0191     -1740.0062      199852.68    
     15900  -3794247.2      40920.309     -3753326.9      2234.725      -121.06162      199663.33    
     16000  -3794626.7      40882.092     -3753744.6      2232.6379      263.28118      199345.87    
     16100  -3794453.3      39907.484     -3754545.8      2179.413       645.66999      199335.64    
     16200  -3794802.5      39899.958     -3754902.6      2179.0019     -1073.2693      199702.04    
     16300  -3795599.2      40626.614     -3754972.6      2218.6858      237.54735      199561.65    
     16400  -3795543.2      40145.018     -3755398.2      2192.3851      1084.0224      199222.57    
     16500  -3796082.1      39797.51      -3756284.6      2173.4071      738.358        199225.2     
     16600  -3795762.5      39564.562     -3756197.9      2160.6855     -1746.974       199658.28    
     16700  -3794912.5      39818.781     -3755093.7      2174.5687      886.29785      199571.03    
     16800  -3794863.2      40082.053     -3754781.2      2188.9465      1412.1964      199644.82    
     16900  -3794666.9      39842.988     -3754823.9      2175.8907     -240.20731      200174.53    
     17000  -3794880.2      40307.312     -3754572.8      2201.2482     -1655.7951      200387.31    
     17100  -3794963.6      41188.173     -3753775.4      2249.3535      320.69323      200028.51    
     17200  -3794290.4      40265.179     -3754025.3      2198.9473      327.46406      199866.29    
     17300  -3795372.6      40229.001     -3755143.5      2196.9715     -699.76005      199881.41    
     17400  -3795345.1      39909.3       -3755435.8      2179.5122     -546.23468      199908.24    
     17500  -3795520.1      40296.423     -3755223.6      2200.6535     -768.0585       200005.67    
     17600  -3794501.4      40014.06      -3754487.4      2185.2333     -1051.5519      200219.36    
     17700  -3794537.3      40624.748     -3753912.6      2218.5839      465.9566       199975.14    
     17800  -3794989.1      40938.494     -3754050.6      2235.7181      2531.6828      199852.6     
     17900  -3794834.2      40273.654     -3754560.5      2199.4101     -1223.3981      200302.43    
     18000  -3794775.8      39711.96      -3755063.8      2168.7351      58.714133      200008.26    
     18100  -3795549.3      40299.582     -3755249.7      2200.8261      490.90293      199859.77    
     18200  -3795633.6      40118.781     -3755514.8      2190.9522     -803.9382       199964.55    
     18300  -3795142.6      39848.309     -3755294.2      2176.1813      147.99084      199909.79    
     18400  -3795115.2      40237.066     -3754878.1      2197.412      -301.61456      199725.06    
     18500  -3794446        39827.579     -3754618.5      2175.0492      364.118        199488       
     18600  -3795181.6      41024.417     -3754157.2      2240.4105      698.47455      199293.75    
     18700  -3794723.5      40026.395     -3754697.1      2185.9069      300.35628      199702.96    
     18800  -3795684.7      40133.386     -3755551.3      2191.7499     -3648.3165      200407.46    
     18900  -3795814.5      40224.928     -3755589.5      2196.7491      912.73835      199670.51    
     19000  -3796279.8      40633.391     -3755646.4      2219.0559      1316.4037      199277.3     
     19100  -3796090        40178.354     -3755911.7      2194.2056     -611.49079      199660.92    
     19200  -3795735.7      39644.196     -3756091.5      2165.0344     -421.20882      199885.16    
     19300  -3795594        40216.821     -3755377.2      2196.3064      619.36         199781.83    
     19400  -3794883.8      40140.278     -3754743.5      2192.1262     -2030.3619      200001.14    
     19500  -3795042.1      40442.021     -3754600        2208.6049      1238.0696      199506.01    
     19600  -3795633.2      40247.799     -3755385.4      2197.9981      1833.2417      199282.99    
     19700  -3796276        40363.959     -3755912        2204.3418      1063.8         199949.54    
     19800  -3795612.7      39966.915     -3755645.8      2182.6586     -2588.3212      200640.52    
     19900  -3795366.9      40231.664     -3755135.3      2197.117       131.56659      199904.74    
     20000  -3796098.3      41055.344     -3755043        2242.0995      2256.0351      199203.24    
Loop time of 542.189 on 8 procs for 10000 steps with 6144 atoms

Performance: 1.594 ns/day, 15.061 hours/ns, 18.444 timesteps/s, 113.318 katom-step/s
98.9% CPU use with 8 MPI tasks x 1 OpenMP threads

MPI task timing breakdown:
Section |  min time  |  avg time  |  max time  |%varavg| %total
---------------------------------------------------------------
Pair    | 21.055     | 21.528     | 22.414     |  10.0 |  3.97
Kspace  | 457.28     | 460.89     | 464.38     |  11.0 | 85.01
Neigh   | 1.1936     | 1.2227     | 1.2931     |   2.7 |  0.23
Comm    | 50.605     | 54.601     | 57.327     |  31.3 | 10.07
Output  | 0.20789    | 0.20792    | 0.20803    |   0.0 |  0.04
Modify  | 2.5684     | 2.5827     | 2.6009     |   0.5 |  0.48
Other   |            | 1.156      |            |       |  0.21

Nlocal:            768 ave         783 max         759 min
Histogram: 3 0 0 2 1 0 0 1 0 1
Nghost:        3866.38 ave        3884 max        3848 min
Histogram: 2 0 1 0 0 0 2 1 1 1
Neighs:        85297.5 ave       87780 max       83063 min
Histogram: 2 0 2 0 0 0 1 1 1 1

Total # of neighbors = 682380
Ave neighs/atom = 111.06445
Neighbor list builds = 422
Dangerous builds = 0

# Unfix the previous fix to prepare for the next loop iteration
unfix 1

# Dump settings will be cleared with the unfix command, so we remove it
undump 1

# Next iteration
next temp
jump SELF loop_temperature

# Set velocities for initial temperature of ${temp} K
velocity all create ${temp} 87287 loop geom
velocity all create 2400 87287 loop geom

# Apply NPT ensemble with P = 1 atm, T = ${temp} K, timestep = 1.0 fs, temperature damping = 100 fs (100x timestep), pressure damping = 1000 fs (1000x timestep)
fix 1 all npt temp ${temp} ${temp} 100.0 iso 1.0 1.0 1000.0
fix 1 all npt temp 2400 ${temp} 100.0 iso 1.0 1.0 1000.0
fix 1 all npt temp 2400 2400 100.0 iso 1.0 1.0 1000.0
thermo 100
thermo_style custom step pe ke etotal temp press vol

# Output dump
dump 1 all custom 100 dump_${temp}K.lammpstrj id element x y z vx vy vz
dump 1 all custom 100 dump_2400K.lammpstrj id element x y z vx vy vz
dump_modify 1 element Ce O

# Run the simulation for 10000 steps
run 10000
Ewald initialization ...
  using 12-bit tables for long-range coulomb (src/kspace.cpp:342)
  G vector (1/distance) = 0.30153295
  estimated absolute RMS force accuracy = 0.044621986
  estimated relative force accuracy = 0.00013437779
  KSpace vectors: actual max1d max3d = 10239 17 21437
                  kxmax kymax kzmax  = 17 17 17
Generated 0 of 1 mixed pair_coeff terms from geometric mixing rule
Per MPI rank memory allocation (min/avg/max) = 34.61 | 34.61 | 34.61 Mbytes
   Step         PotEng         KinEng         TotEng          Temp          Press          Volume    
     20000  -3796098.2      43946.679     -3752151.5      2400           2919.4555      199203.24    
     20100  -3793737.8      42807.308     -3750930.5      2337.7771      559.72906      199950.95    
     20200  -3792386.4      42800.975     -3749585.4      2337.4313     -2224.3924      200948.25    
     20300  -3791660.4      43683.986     -3747976.4      2385.6539      579.76082      200954.63    
     20400  -3791656.5      44670.687     -3746985.8      2439.5393      159.93288      200812.33    
     20500  -3791090.4      44848.927     -3746241.5      2449.2733      68.973267      200695.43    
     20600  -3790664.9      44319.178     -3746345.7      2420.3428     -358.06861      200758.51    
     20700  -3791228.8      43844.171     -3747384.6      2394.4019     -1972.2367      200931.63    
     20800  -3792064.4      44235.872     -3747828.5      2415.7933     -154.06242      200592.82    
     20900  -3791566.4      43612.179     -3747954.2      2381.7324     -74.697162      200347.76    
     21000  -3790988.1      43747.994     -3747240.1      2389.1495     -400.31347      200571.19    
     21100  -3791129.1      44832.876     -3746296.2      2448.3967     -962.95162      200826.7     
     21200  -3791108.9      44651.737     -3746457.2      2438.5044      996.7838       200870.57    
     21300  -3790949        43917.733     -3747031.3      2398.4192      395.65983      200991.76    
     21400  -3791554.1      44283.642     -3747270.4      2418.4021     -1511.4433      200973.48    
     21500  -3791512.1      44134.615     -3747377.5      2410.2635      1499.3314      200661.36    
     21600  -3791053.9      43858.715     -3747195.2      2395.1962     -271.87675      200516.13    
     21700  -3791255.8      44228.611     -3747027.2      2415.3968      1653.5126      200510.1     
     21800  -3790813.7      44041.616     -3746772.1      2405.1847      385.80628      201071.43    
     21900  -3789846.7      43525.484     -3746321.2      2376.9979     -1483.2891      201283.59    
     22000  -3790695.9      44737.219     -3745958.7      2443.1727      129.67378      200713.65    
     22100  -3791196.5      44422.184     -3746774.3      2425.9681      636.07348      200241.06    
     22200  -3791283.7      43853.041     -3747430.6      2394.8863     -1066.4508      200196.28    
     22300  -3791475.4      44060.291     -3747415.2      2406.2046      3356.4301      199996.18    
     22400  -3791445.8      44007.562     -3747438.3      2403.3249     -1557.5279      200823.28    
     22500  -3791173.8      44582.182     -3746591.6      2434.7059     -2402.98        201263.98    
     22600  -3790706.5      44746.108     -3745960.4      2443.6581      313.86522      200583.28    
     22700  -3790437.1      43903.921     -3746533.2      2397.6649      1310.8424      200095.33    
     22800  -3790876.1      43508.821     -3747367.3      2376.0879     -1225.9237      200334.72    
     22900  -3791112.9      43762.955     -3747349.9      2389.9666     -261.39476      200583.64    
     23000  -3790935.6      43901.924     -3747033.7      2397.5559     -2119.8738      200786.32    
     23100  -3790811.3      43945.932     -3746865.4      2399.9592     -331.3794       200447.55    
     23200  -3790620.2      43988.427     -3746631.8      2402.2799      2684.4593      200069.27    
     23300  -3790681.8      44480.004     -3746201.8      2429.1257     -393.12319      200567.39    
     23400  -3790629.6      44066.204     -3746563.4      2406.5275     -2738.9152      201128.91    
     23500  -3790697.9      43329.669     -3747368.2      2366.3041      167.93729      200599.97    
     23600  -3791436.2      43685.138     -3747751.1      2385.7168      1500.0857      200008.35    
     23700  -3791732.8      43790.541     -3747942.3      2391.4731      1017.8426      200366.59    
     23800  -3790751.4      43756.88      -3746994.5      2389.6348     -1308.9586      200933.47    
     23900  -3790308.6      44184.52      -3746124        2412.9889     -147.16182      200845.03    
     24000  -3790228.9      44314.79      -3745914.1      2420.1032     -1121.0814      200584.02    
     24100  -3790835.6      44054.243     -3746781.4      2405.8743      469.61494      200205.3     
     24200  -3791245.8      43705.845     -3747539.9      2386.8477      923.19216      200106.96    
     24300  -3791170.7      43439.115     -3747731.6      2372.2811      1284.6479      200335.34    
     24400  -3790786        43827.396     -3746958.6      2393.4857     -1266.0498      200916.38    
     24500  -3790082.8      43764.874     -3746317.9      2390.0713     -907.85118      200914.33    
     24600  -3790952.9      44257.766     -3746695.1      2416.989       264.9219       200662.97    
     24700  -3791378.1      44039.459     -3747338.7      2405.0669      11.011405      200448.15    
     24800  -3791608.2      43723.437     -3747884.8      2387.8084     -1121.7013      200271.09    
     24900  -3791377.3      43541.414     -3747835.9      2377.8678      301.39707      200161.96    
     25000  -3790808.9      43161.792     -3747647.1      2357.136      -1042.5319      200284.43    
     25100  -3792074.2      44788.994     -3747285.2      2446.0002     -177.78627      200245.8     
     25200  -3791279.3      44081.836     -3747197.4      2407.3811      690.07966      200466.37    
     25300  -3791114.2      44161.094     -3746953.1      2411.7096      44.850409      200706.64    
     25400  -3791010        44716.395     -3746293.6      2442.0355     -950.68698      200703.41    
     25500  -3790517.9      44178.278     -3746339.6      2412.648      -575.29134      200594.83    
     25600  -3791072.4      43787.302     -3747285.1      2391.2962     -664.94724      200568.65    
     25700  -3791660        43792.399     -3747867.6      2391.5745      352.38117      200243.19    
     25800  -3791510        43549.117     -3747960.9      2378.2885      808.81603      199852.03    
     25900  -3791483.4      43690.961     -3747792.4      2386.0348      1239.3868      199837.17    
     26000  -3791294.1      44151.078     -3747143.1      2411.1626     -1572.1269      200430.58    
     26100  -3790522        44360.247     -3746161.7      2422.5856     -1625.0199      200723.8     
     26200  -3790456.5      44246.873     -3746209.6      2416.3941     -1102.027       200448.5     
     26300  -3791291.4      44091.028     -3747200.3      2407.8832      1313.0469      200054.89    
     26400  -3791666        43920.599     -3747745.4      2398.5757     -368.31542      200307.69    
     26500  -3791230        43518.017     -3747711.9      2376.5901      403.38932      200603.11    
     26600  -3791048.6      43941.871     -3747106.8      2399.7374      712.80015      200503.66    
     26700  -3791331.1      44486.716     -3746844.4      2429.4923     -771.59035      200368.33    
     26800  -3791428.4      44054.252     -3747374.2      2405.8747      310.39919      200226.65    
     26900  -3791260.6      43485.597     -3747775        2374.8196      149.63903      200154.28    
     27000  -3792107.7      44477.908     -3747629.8      2429.0113      941.17515      200051.02    
     27100  -3791419.1      43698.712     -3747720.4      2386.4582      232.69563      200194.28    
     27200  -3792453.2      44236.726     -3748216.4      2415.84        141.18508      200641.29    
     27300  -3792249.5      43839.415     -3748410.1      2394.1421     -2518.1781      201236.2     
     27400  -3791273.5      44143.149     -3747130.4      2410.7296     -914.22918      200784.95    
     27500  -3791276.8      44472.478     -3746804.4      2428.7148      1147.4391      200193.39    
     27600  -3791347.2      44082.129     -3747265.1      2407.3972      495.9468       200198.38    
     27700  -3791563        43873.394     -3747689.6      2395.9978     -1172.2774      200413.63    
     27800  -3791475.9      43409.647     -3748066.3      2370.6718     -255.50285      200348.47    
     27900  -3792108.1      43813.382     -3748294.7      2392.7205      194.2683       200136.16    
     28000  -3791070.6      43287.955     -3747782.7      2364.026       937.6089       200104.08    
     28100  -3791554.8      44534.061     -3747020.8      2432.0779     -199.6335       200386.7     
     28200  -3790802.3      43711.449     -3747090.9      2387.1537     -853.47784      200646.71    
     28300  -3791154.5      43984.481     -3747170.1      2402.0644     -1450.7258      200393.82    
     28400  -3791583        43832.589     -3747750.4      2393.7694      1012.4353      199668.03    
     28500  -3792043.9      43597.236     -3748446.7      2380.9164      2788.0855      199781.9     
     28600  -3792196.5      43642.412     -3748554.1      2383.3835     -2120.9513      200540.38    
     28700  -3791339.4      43719.304     -3747620.1      2387.5827     -365.57624      200462.65    
     28800  -3791592.5      44772.84      -3746819.7      2445.118       497.19227      200201.21    
     28900  -3790994.1      43730.233     -3747263.9      2388.1795     -319.70226      200317.78    
     29000  -3792020        44257.447     -3747762.6      2416.9716     -329.62528      200144.1     
     29100  -3791764.6      43719.094     -3748045.5      2387.5712      1141.593       199937.51    
     29200  -3792445.4      44841.949     -3747603.4      2448.8922     -474.94822      200046.01    
     29300  -3791492.4      44998.046     -3746494.3      2457.4169      163.80421      200113.17    
     29400  -3791203.3      44475.448     -3746727.9      2428.8769     -1173.7828      200350.31    
     29500  -3791954        44203.248     -3747750.7      2414.0117     -778.60472      200215.16    
     29600  -3791604.2      43490.96      -3748113.3      2375.1124      590.52026      199946.2     
     29700  -3792183.1      44250.206     -3747932.8      2416.5761     -123.00164      199913.68    
     29800  -3790952.3      43164.542     -3747787.8      2357.2863     -133.03937      200055.69    
     29900  -3791501.8      44375.023     -3747126.7      2423.3926      202.79923      200336.69    
     30000  -3790437.3      43823.598     -3746613.7      2393.2783     -915.04453      200795.1     
Loop time of 540.047 on 8 procs for 10000 steps with 6144 atoms

Performance: 1.600 ns/day, 15.001 hours/ns, 18.517 timesteps/s, 113.768 katom-step/s
98.8% CPU use with 8 MPI tasks x 1 OpenMP threads

MPI task timing breakdown:
Section |  min time  |  avg time  |  max time  |%varavg| %total
---------------------------------------------------------------
Pair    | 21.116     | 21.522     | 22.078     |   7.9 |  3.99
Kspace  | 453.02     | 460.13     | 466.2      |  18.9 | 85.20
Neigh   | 1.2661     | 1.3082     | 1.3384     |   1.9 |  0.24
Comm    | 46.684     | 52.828     | 59.565     |  55.8 |  9.78
Output  | 0.19934    | 0.19972    | 0.20006    |   0.1 |  0.04
Modify  | 2.7949     | 2.8198     | 2.853      |   1.3 |  0.52
Other   |            | 1.237      |            |       |  0.23

Nlocal:            768 ave         778 max         753 min
Histogram: 1 0 1 1 0 0 0 1 3 1
Nghost:        3848.12 ave        3867 max        3839 min
Histogram: 4 0 1 0 0 1 1 0 0 1
Neighs:          84670 ave       87174 max       83406 min
Histogram: 4 1 0 0 0 0 1 0 1 1

Total # of neighbors = 677360
Ave neighs/atom = 110.2474
Neighbor list builds = 450
Dangerous builds = 0

# Unfix the previous fix to prepare for the next loop iteration
unfix 1

# Dump settings will be cleared with the unfix command, so we remove it
undump 1

# Next iteration
next temp
jump SELF loop_temperature

# Set velocities for initial temperature of ${temp} K
velocity all create ${temp} 87287 loop geom
velocity all create 2600 87287 loop geom

# Apply NPT ensemble with P = 1 atm, T = ${temp} K, timestep = 1.0 fs, temperature damping = 100 fs (100x timestep), pressure damping = 1000 fs (1000x timestep)
fix 1 all npt temp ${temp} ${temp} 100.0 iso 1.0 1.0 1000.0
fix 1 all npt temp 2600 ${temp} 100.0 iso 1.0 1.0 1000.0
fix 1 all npt temp 2600 2600 100.0 iso 1.0 1.0 1000.0
thermo 100
thermo_style custom step pe ke etotal temp press vol

# Output dump
dump 1 all custom 100 dump_${temp}K.lammpstrj id element x y z vx vy vz
dump 1 all custom 100 dump_2600K.lammpstrj id element x y z vx vy vz
dump_modify 1 element Ce O

# Run the simulation for 10000 steps
run 10000
Ewald initialization ...
  using 12-bit tables for long-range coulomb (src/kspace.cpp:342)
  G vector (1/distance) = 0.30146695
  estimated absolute RMS force accuracy = 0.045481599
  estimated relative force accuracy = 0.00013696648
  KSpace vectors: actual max1d max3d = 10239 17 21437
                  kxmax kymax kzmax  = 17 17 17
Generated 0 of 1 mixed pair_coeff terms from geometric mixing rule
Per MPI rank memory allocation (min/avg/max) = 34.61 | 34.61 | 34.61 Mbytes
   Step         PotEng         KinEng         TotEng          Temp          Press          Volume    
     30000  -3790437        47608.902     -3742828        2600          -53.490845      200795.1     
     30100  -3788456.6      46791.692     -3741664.9      2555.3708      1374.9604      200902.18    
     30200  -3787618.7      46970.832     -3740647.8      2565.1539     -1348.5487      201249.13    
     30300  -3787425.8      47784.078     -3739641.7      2609.5666     -1585.3147      201052.65    
     30400  -3786601.1      47658.414     -3738942.7      2602.7039      2027.9005      200702.5     
     30500  -3786577.7      47624.814     -3738952.9      2600.869       762.4303       200888.14    
     30600  -3786457.5      46826.685     -3739630.8      2557.2818     -192.94695      201133.17    
     30700  -3787187.7      46959.093     -3740228.6      2564.5129     -1128.6366      200967.91    
     30800  -3787265.4      46959.265     -3740306.2      2564.5223      1216.5778      200342.81    
     30900  -3787252.3      47549.216     -3739703.1      2596.7404      603.45683      200672.67    
     31000  -3786698.8      47846.512     -3738852.2      2612.9763     -1635.1186      201435.87    
     31100  -3786208.9      47962.552     -3738246.3      2619.3134     -1584.4194      201478.62    
     31200  -3786501.5      47966.172     -3738535.4      2619.5111     -302.33685      200936.27    
     31300  -3786794.9      47098.632     -3739696.3      2572.1333     -102.14488      200549.9     
     31400  -3787162.7      47618.853     -3739543.8      2600.5435      1328.7103      200483.54    
     31500  -3786858.5      47645.654     -3739212.9      2602.0071     -2182.1349      201101.14    
     31600  -3786704        48084.235     -3738619.8      2625.9587     -576.64826      201434.78    
     31700  -3785707.8      47944.364     -3737763.5      2618.3201     -1262.0651      201757.7     
     31800  -3786005.1      48265.812     -3737739.3      2635.875       190.90724      201587.7     
     31900  -3786490        47254.004     -3739236        2580.6184     -555.4383       201274.21    
     32000  -3786979.4      47325.425     -3739653.9      2584.5189     -388.0282       201064.4     
     32100  -3787031.3      47518.036     -3739513.2      2595.0377     -282.88917      200997.5     
     32200  -3786902.5      48019.872     -3738882.6      2622.4438      1500.0576      201149.77    
     32300  -3785706.1      47834.103     -3737872        2612.2986     -1810.167       201811.24    
     32400  -3784694.6      47098.77      -3737595.9      2572.1409      416.84168      201841.04    
     32500  -3785864.5      47636.953     -3738227.6      2601.5319      893.18049      201510.37    
     32600  -3787261.4      47568.767     -3739692.7      2597.8082     -742.09492      201567.65    
     32700  -3786908.2      47330.219     -3739577.9      2584.7807     -845.11541      201459.77    
     32800  -3786259.5      47468.896     -3738790.6      2592.354       387.34668      201076.65    
     32900  -3785784.1      47464.207     -3738319.9      2592.098       1343.9769      201054.66    
     33000  -3786219.4      47687.763     -3738531.7      2604.3067     -576.08304      201523.22    
     33100  -3787218.2      47469.258     -3739748.9      2592.3738     -1229.9037      201995.26    
     33200  -3787250.9      47163.217     -3740087.7      2575.6604     -1090.9922      201966.89    
     33300  -3786599.4      47098.041     -3739501.3      2572.1011     -556.82927      201437.75    
     33400  -3787342.3      48205.134     -3739137.2      2632.5612      1922.3575      200985.2     
     33500  -3787417.4      48107.156     -3739310.3      2627.2105     -1238.8045      201138.73    
     33600  -3787061.2      47058.194     -3740003        2569.9249      28.41964       201178.18    
     33700  -3787700.7      47433.109     -3740267.6      2590.3997     -367.1293       201048.85    
     33800  -3786569.3      47521.623     -3739047.7      2595.2335     -161.44053      200902.69    
     33900  -3785923.3      47614.145     -3738309.2      2600.2863      189.94129      201127.03    
     34000  -3785844.8      47222.411     -3738622.4      2578.8931     -853.09326      201263.36    
     34100  -3786660.5      47599.589     -3739060.9      2599.4914      1254.9635      201017.49    
     34200  -3787250.1      47391.049     -3739859.1      2588.1027      1487.3434      201313.2     
     34300  -3786658.2      46193.484     -3740464.7      2522.7017     -972.02129      202188.55    
     34400  -3786722.3      47110.813     -3739611.5      2572.7986     -1034.7136      202340.41    
     34500  -3785834.9      47414.267     -3738420.7      2589.3707     -670.49212      201711.52    
     34600  -3786153        47975.932     -3738177.1      2620.0441      1963.9016      200946.89    
     34700  -3786578.6      47459.534     -3739119        2591.8427      1526.4268      201156.94    
     34800  -3787046.5      47410.71      -3739635.8      2589.1764     -2095.7012      201894.21    
     34900  -3786670.8      47008.397     -3739662.4      2567.2054     -1411.1069      201856.98    
     35000  -3786627.4      48001.449     -3738626        2621.4376     -122.90337      201306.86    
     35100  -3786830.2      48835.443     -3737994.7      2666.9834      2754.5658      200936.23    
     35200  -3786866        48329.642     -3738536.3      2639.3608     -3014.4534      201743.86    
     35300  -3786391        47324.455     -3739066.5      2584.4659     -1200.55        201828.63    
     35400  -3787084.4      47417.048     -3739667.3      2589.5226      597.13498      201170.56    
     35500  -3787706.6      47779.13      -3739927.5      2609.2964      1525.4515      200702.94    
     35600  -3786389.5      47534.595     -3738854.9      2595.942       1590.8096      200794.5     
     35700  -3786021.4      47766.785     -3738254.6      2608.6223     -337.43221      201478.89    
     35800  -3786053.9      47410.927     -3738643        2589.1883     -418.47086      201776.84    
     35900  -3786410.1      47314.512     -3739095.6      2583.9229     -733.09498      201374.22    
     36000  -3787443.4      47606.593     -3739836.9      2599.8739      1075.8606      200857.02    
     36100  -3787994.3      47183.93      -3740810.4      2576.7916      291.15383      200951.07    
     36200  -3787079        46490.889     -3740588.1      2538.9435     -3.0882737      201135.92    
     36300  -3787308.6      47739.597     -3739569        2607.1375      973.99981      201204.13    
     36400  -3786889.7      47639.982     -3739249.8      2601.6973      122.73307      201591.41    
     36500  -3786769.2      47719.31      -3739049.9      2606.0296     -1322.2591      201856.77    
     36600  -3785775.3      46970.687     -3738804.7      2565.146       929.64753      201436.53    
     36700  -3786571.2      48593.889     -3737977.3      2653.7917      1126.9056      201246.98    
     36800  -3785777.5      47729.383     -3738048.1      2606.5797      436.01243      201588.71    
     36900  -3786351.8      47156.957     -3739194.8      2575.3185     -2274.1799      201825.39    
     37000  -3786381.7      47144.671     -3739237        2574.6476      1496.9322      201285.61    
     37100  -3786911.5      47836.337     -3739075.2      2612.4206      282.66158      201131.26    
     37200  -3786492.7      47717.4       -3738775.3      2605.9253     -1706.0006      201396.6     
     37300  -3786322.6      48130.144     -3738192.4      2628.4659      53.029435      201666.63    
     37400  -3785410.8      47577.371     -3737833.4      2598.278       164.50092      201863.73    
     37500  -3785971.5      47781.597     -3738189.9      2609.4312     -849.32455      201666.37    
     37600  -3786879.2      47428.788     -3739450.4      2590.1637      375.8672       201167.29    
     37700  -3786766.4      46868.805     -3739897.6      2559.5821      402.92228      201031.33    
     37800  -3787226        47721.851     -3739504.2      2606.1683     -592.4944       201456.14    
     37900  -3786640.2      47967.644     -3738672.6      2619.5915     -869.93205      201751.14    
     38000  -3786568.9      48183.909     -3738385        2631.4021     -777.23571      201593.3     
     38100  -3786701.7      47510.24      -3739191.4      2594.6119      46.815917      201352.66    
     38200  -3787276.3      47046.1       -3740230.2      2569.2645      1825.7315      201013.08    
     38300  -3787170.5      46867.743     -3740302.7      2559.5241      1561.0624      201179.99    
     38400  -3787072.7      47378.296     -3739694.4      2587.4062     -2293.0717      201742.79    
     38500  -3787203.4      48270.661     -3738932.8      2636.1397      28.276324      201557.75    
     38600  -3787077.5      48033.035     -3739044.5      2623.1626     -476.18837      201145.45    
     38700  -3787585.4      47720.525     -3739864.9      2606.0959      2186.5786      200982.58    
     38800  -3787701.8      47178.185     -3740523.7      2576.4778     -1514.7043      201450.89    
     38900  -3787186.2      47194.741     -3739991.4      2577.382       376.76059      201228.55    
     39000  -3786346.8      47571.878     -3738774.9      2597.978       1340.4419      200708.32    
     39100  -3787414        48306.516     -3739107.5      2638.0978      40.5767        200930.68    
     39200  -3786814.7      47112.161     -3739702.6      2572.8722     -142.31815      201413.11    
     39300  -3787093.4      47365.636     -3739727.8      2586.7148     -1697.9167      201629.15    
     39400  -3786404.1      47253.862     -3739150.2      2580.6107     -426.22291      201432.38    
     39500  -3786037.5      47929.936     -3738107.6      2617.5322      103.72343      201406.11    
     39600  -3786352.7      48140.099     -3738212.6      2629.0095     -579.28277      201823.22    
     39700  -3786523.4      47537.51      -3738985.9      2596.1012     -352.02464      202188.13    
     39800  -3786805.2      47746.557     -3739058.7      2607.5175     -771.24832      202151.77    
     39900  -3786605.6      47663.775     -3738941.9      2602.9967      575.94363      201612.85    
     40000  -3786395.9      47724.365     -3738671.5      2606.3056      1689.8032      201151.15    
Loop time of 540.996 on 8 procs for 10000 steps with 6144 atoms

Performance: 1.597 ns/day, 15.028 hours/ns, 18.484 timesteps/s, 113.568 katom-step/s
97.9% CPU use with 8 MPI tasks x 1 OpenMP threads

MPI task timing breakdown:
Section |  min time  |  avg time  |  max time  |%varavg| %total
---------------------------------------------------------------
Pair    | 21.268     | 21.731     | 22.326     |   8.5 |  4.02
Kspace  | 455.69     | 461.67     | 467.42     |  18.1 | 85.34
Neigh   | 1.3331     | 1.3727     | 1.4104     |   2.4 |  0.25
Comm    | 44.635     | 50.698     | 56.784     |  55.2 |  9.37
Output  | 0.23864    | 0.24177    | 0.24347    |   0.3 |  0.04
Modify  | 3.8068     | 3.8525     | 3.9165     |   1.8 |  0.71
Other   |            | 1.43       |            |       |  0.26

Nlocal:            768 ave         782 max         754 min
Histogram: 1 1 0 3 0 0 0 0 2 1
Nghost:           3832 ave        3852 max        3815 min
Histogram: 2 1 0 0 1 1 1 0 0 2
Neighs:        84496.8 ave       88023 max       82002 min
Histogram: 2 0 2 0 1 1 0 1 0 1

Total # of neighbors = 675974
Ave neighs/atom = 110.02181
Neighbor list builds = 465
Dangerous builds = 0

# Unfix the previous fix to prepare for the next loop iteration
unfix 1

# Dump settings will be cleared with the unfix command, so we remove it
undump 1

# Next iteration
next temp
jump SELF loop_temperature

# Set velocities for initial temperature of ${temp} K
velocity all create ${temp} 87287 loop geom
velocity all create 2800 87287 loop geom

# Apply NPT ensemble with P = 1 atm, T = ${temp} K, timestep = 1.0 fs, temperature damping = 100 fs (100x timestep), pressure damping = 1000 fs (1000x timestep)
fix 1 all npt temp ${temp} ${temp} 100.0 iso 1.0 1.0 1000.0
fix 1 all npt temp 2800 ${temp} 100.0 iso 1.0 1.0 1000.0
fix 1 all npt temp 2800 2800 100.0 iso 1.0 1.0 1000.0
thermo 100
thermo_style custom step pe ke etotal temp press vol

# Output dump
dump 1 all custom 100 dump_${temp}K.lammpstrj id element x y z vx vy vz
dump 1 all custom 100 dump_2800K.lammpstrj id element x y z vx vy vz
dump_modify 1 element Ce O

# Run the simulation for 10000 steps
run 10000
Ewald initialization ...
  using 12-bit tables for long-range coulomb (src/kspace.cpp:342)
  G vector (1/distance) = 0.30145226
  estimated absolute RMS force accuracy = 0.045679931
  estimated relative force accuracy = 0.00013756376
  KSpace vectors: actual max1d max3d = 10239 17 21437
                  kxmax kymax kzmax  = 17 17 17
Generated 0 of 1 mixed pair_coeff terms from geometric mixing rule
Per MPI rank memory allocation (min/avg/max) = 34.61 | 34.61 | 34.61 Mbytes
   Step         PotEng         KinEng         TotEng          Temp          Press          Volume    
     40000  -3786395.8      51271.125     -3735124.7      2800           2495.7809      201151.15    
     40100  -3783912.8      49996.762     -3733916        2730.4049      1264.6775      201551.62    
     40200  -3783041.1      50277.657     -3732763.4      2745.7451      1024.0947      202257.18    
     40300  -3782072.7      50828.306     -3731244.4      2775.8169     -2019.1591      202792.51    
     40400  -3781366.7      51113.304     -3730253.4      2791.3811     -427.43463      202495.69    
     40500  -3781832.9      52080.459     -3729752.4      2844.199       1850.9763      202107.53    
     40600  -3782726.8      52405.494     -3730321.4      2861.9498     -1602.5918      202437.81    
     40700  -3782829.7      51423.137     -3731406.6      2808.3016     -885.1866       202505.75    
     40800  -3783055.3      51531.961     -3731523.3      2814.2447      1568.7212      202199.33    
     40900  -3782488.5      50659.631     -3731828.8      2766.6053      1256.4144      202156.98    
     41000  -3783121.9      50800.783     -3732321.1      2774.3139      781.23791      202399.05    
     41100  -3782810.1      50227.838     -3732582.3      2743.0244     -1194.4822      202714.19    
     41200  -3782152.3      50523.466     -3731628.8      2759.1691      508.11049      202485.62    
     41300  -3782739.7      51993.222     -3730746.5      2839.4349      2257.9917      202167.05    
     41400  -3781965        50985.139     -3730979.8      2784.3818     -866.86686      202550.07    
     41500  -3782862.1      51706.416     -3731155.7      2823.7719     -569.17752      202628.46    
     41600  -3782655.6      50479.013     -3732176.6      2756.7415     -112.24872      202200.98    
     41700  -3783930.3      50748.026     -3733182.2      2771.4327      1966.6681      201413.71    
     41800  -3783668.7      50827.202     -3732841.5      2775.7566      2324.5263      201502.23    
     41900  -3783081.5      51211.559     -3731870        2796.747      -1110.0168      202823.56    
     42000  -3782007.1      51053.343     -3730953.8      2788.1065     -4078.8795      203689.58    
     42100  -3783108.5      52415.077     -3730693.5      2862.4731     -799.23166      203075.92    
     42200  -3782522.2      51405.226     -3731117        2807.3235     -291.30544      202230.23    
     42300  -3782789.8      50889.71      -3731900.1      2779.1703      1782.7008      201799.43    
     42400  -3783443.9      50704.483     -3732739.4      2769.0547      69.662303      202020.85    
     42500  -3784037.8      51715.602     -3732322.2      2824.2736     -946.11256      202214.42    
     42600  -3783096.3      51159.941     -3731936.4      2793.928       494.36178      202141.48    
     42700  -3783182.9      51835.869     -3731347        2830.8416      656.01575      202243.2     
     42800  -3781853.5      50653.892     -3731199.6      2766.2919     -923.9175       202357.51    
     42900  -3782714.5      51617.078     -3731097.5      2818.8931      2266.933       202108.95    
     43000  -3783211.8      51174.509     -3732037.3      2794.7236      286.64594      202349.52    
     43100  -3782943.3      49743.131     -3733200.2      2716.5537     -1479.8294      202303.24    
     43200  -3784385.5      51550.798     -3732834.7      2815.2734      1776.4454      201687.02    
     43300  -3783714.7      51351.765     -3732362.9      2804.4039      495.09415      202101.24    
     43400  -3782377        50923.046     -3731453.9      2780.9908     -701.47706      202685.52    
     43500  -3781809.7      50780.117     -3731029.6      2773.1852     -726.88852      202856.58    
     43600  -3782385        51231.047     -3731154        2797.8113      390.06127      202591.47    
     43700  -3782776.5      51147.874     -3731628.7      2793.269       158.28887      202349.3     
     43800  -3782555.3      50204.305     -3732351        2741.7392      272.09043      202459.63    
     43900  -3783805.3      51074.932     -3732730.4      2789.2855      116.23611      202486.1     
     44000  -3783522.4      51310.879     -3732211.6      2802.171       768.94952      202411.53    
     44100  -3781845.3      50587.926     -3731257.4      2762.6893      1729.7736      202712.01    
     44200  -3781583.4      50696.942     -3730886.4      2768.6429     -1056.5654      203155.99    
     44300  -3782195.4      51891.898     -3730303.6      2833.9014     -964.11454      203003.31    
     44400  -3781225.1      52062.414     -3729162.7      2843.2136      1311.0032      202725.37    
     44500  -3780500.9      51510.885     -3728990        2813.0937      348.3888       202903.07    
     44600  -3782124        51487.051     -3730637        2811.7921     -1693.0526      203087.98    
     44700  -3782546.2      51209.822     -3731336.3      2796.6521     -1386.4187      202949.71    
     44800  -3782052.4      50296.894     -3731755.5      2746.7956      1688.8644      202637.01    
     44900  -3782486.9      50869.353     -3731617.5      2778.0586      270.8179       202944.18    
     45000  -3782307.9      51651.255     -3730656.7      2820.7595     -829.31033      202997.81    
     45100  -3781796.9      52090.746     -3729706.1      2844.7608      322.04604      202750.23    
     45200  -3781046.8      51184.202     -3729862.6      2795.253       50.708173      202932.03    
     45300  -3782003.9      51687.018     -3730316.9      2822.7126     -974.48343      203038.07    
     45400  -3782220.3      51021.784     -3731198.5      2786.3831     -847.68493      202934.17    
     45500  -3782394.2      51182.367     -3731211.9      2795.1528      699.89843      202693.25    
     45600  -3783091.7      52168.255     -3730923.4      2848.9937     -55.884608      202727.08    
     45700  -3781978.7      51167.314     -3730811.4      2794.3307      60.745183      203057.69    
     45800  -3782202.3      51578.714     -3730623.5      2816.7979     -364.3802       203244.2     
     45900  -3782279.3      51885.491     -3730393.8      2833.5515     -1179.4697      202997.05    
     46000  -3782234.8      51554.78      -3730680.1      2815.4908      1741.1789      202475.27    
     46100  -3783329        51527.457     -3731801.5      2813.9987     -644.47805      202202.83    
     46200  -3782851.2      50452.178     -3732399        2755.2759      1664.6668      202064.43    
     46300  -3783503.6      51313.099     -3732190.5      2802.2923      278.53718      202375.64    
     46400  -3782589.2      51166.619     -3731422.5      2794.2927     -368.7911       202801.48    
     46500  -3781469.4      51535.438     -3729934        2814.4346      723.86593      202805.44    
     46600  -3782260.6      52121.961     -3730138.6      2846.4656      223.6438       202759.84    
     46700  -3782468.8      51362.242     -3731106.5      2804.976      -765.85479      202786.62    
     46800  -3783181.2      51426.375     -3731754.8      2808.4784      979.37234      202649.33    
     46900  -3783381.9      51069.51      -3732312.4      2788.9895      116.70479      202911.22    
     47000  -3782716        50649.733     -3732066.3      2766.0648     -2523.4546      203058.55    
     47100  -3782831.4      52246.123     -3730585.3      2853.2462      1081.796       202433.38    
     47200  -3782254.1      51696.411     -3730557.7      2823.2256      1464.2143      202454.44    
     47300  -3782881.9      51634.976     -3731246.9      2819.8705     -1543.3024      203091.49    
     47400  -3782930.4      51159.623     -3731770.8      2793.9107     -2841.0856      203285.61    
     47500  -3783111.1      51295.619     -3731815.5      2801.3377      1130.567       202580.05    
     47600  -3783703.5      52096.1       -3731607.4      2845.0532      1617.0216      202263.8     
     47700  -3782831.8      50670.548     -3732161.2      2767.2015      458.63208      202739.76    
     47800  -3783574.9      50637.109     -3732937.8      2765.3753     -664.63911      202971.5     
     47900  -3783483.4      50941.826     -3732541.6      2782.0164     -1737.4954      202633.43    
     48000  -3783329.7      51831.713     -3731497.9      2830.6146      1201.4538      202217.61    
     48100  -3782447.7      51137.231     -3731310.5      2792.6878      729.3329       202506.83    
     48200  -3782648.5      50454.449     -3732194.1      2755.4        -1519.4476      202790.77    
     48300  -3783546.4      50681.035     -3732865.4      2767.7742     -410.94402      202509.88    
     48400  -3783483.3      50882.346     -3732601        2778.7681      2162.9972      202364.43    
     48500  -3783524.4      51253.029     -3732271.3      2799.0117      839.65926      202881.43    
     48600  -3783244.6      51711.57      -3731533        2824.0534     -2602.1357      203603       
     48700  -3782974.5      52224.238     -3730750.3      2852.0511     -963.92795      203250.87    
     48800  -3781980.3      51673.303     -3730307        2821.9636      2165.2051      202446.53    
     48900  -3783735.3      52409.282     -3731326        2862.1566      1345.6121      202220.85    
     49000  -3783554.3      51092.415     -3732461.9      2790.2403     -299.00238      202518.24    
     49100  -3783814.5      51160.583     -3732653.9      2793.9631     -420.54387      202760.99    
     49200  -3783732.7      51526.505     -3732206.2      2813.9467      1416.8536      202809.72    
     49300  -3783210.9      51628.197     -3731582.7      2819.5003      586.29197      203262.81    
     49400  -3783361.4      51900.991     -3731460.4      2834.398      -2456.2448      203564.41    
     49500  -3784284.3      51626.119     -3732658.2      2819.3868      310.73863      203002.79    
     49600  -3784216.5      50837.759     -3733378.7      2776.3331      594.01785      202412.48    
     49700  -3784525.1      51135.379     -3733389.7      2792.5867      521.66573      202342.37    
     49800  -3784372.6      51280.05      -3733092.5      2800.4874      788.62532      202714.52    
     49900  -3783530.4      51305.211     -3732225.2      2801.8615     -1206.9638      202883.89    
     50000  -3783719.5      52111.12      -3731608.4      2845.8735      342.57988      202781.39    
Loop time of 537.459 on 8 procs for 10000 steps with 6144 atoms

Performance: 1.608 ns/day, 14.929 hours/ns, 18.606 timesteps/s, 114.316 katom-step/s
98.5% CPU use with 8 MPI tasks x 1 OpenMP threads

MPI task timing breakdown:
Section |  min time  |  avg time  |  max time  |%varavg| %total
---------------------------------------------------------------
Pair    | 21.017     | 21.574     | 22.256     |   9.8 |  4.01
Kspace  | 460.28     | 464.41     | 469.08     |  11.7 | 86.41
Neigh   | 1.3711     | 1.433      | 1.4568     |   2.1 |  0.27
Comm    | 41.348     | 45.623     | 49.832     |  38.5 |  8.49
Output  | 0.218      | 0.21826    | 0.21977    |   0.1 |  0.04
Modify  | 2.9045     | 2.9419     | 2.9873     |   1.4 |  0.55
Other   |            | 1.256      |            |       |  0.23

Nlocal:            768 ave         783 max         757 min
Histogram: 2 1 1 0 1 1 0 0 0 2
Nghost:           3819 ave        3857 max        3797 min
Histogram: 1 2 2 0 1 0 0 1 0 1
Neighs:          83977 ave       86288 max       81695 min
Histogram: 2 0 0 2 0 1 0 0 2 1

Total # of neighbors = 671816
Ave neighs/atom = 109.34505
Neighbor list builds = 488
Dangerous builds = 0

# Unfix the previous fix to prepare for the next loop iteration
unfix 1

# Dump settings will be cleared with the unfix command, so we remove it
undump 1

# Next iteration
next temp
jump SELF loop_temperature

# Set velocities for initial temperature of ${temp} K
velocity all create ${temp} 87287 loop geom
velocity all create 3000 87287 loop geom

# Apply NPT ensemble with P = 1 atm, T = ${temp} K, timestep = 1.0 fs, temperature damping = 100 fs (100x timestep), pressure damping = 1000 fs (1000x timestep)
fix 1 all npt temp ${temp} ${temp} 100.0 iso 1.0 1.0 1000.0
fix 1 all npt temp 3000 ${temp} 100.0 iso 1.0 1.0 1000.0
fix 1 all npt temp 3000 3000 100.0 iso 1.0 1.0 1000.0
thermo 100
thermo_style custom step pe ke etotal temp press vol

# Output dump
dump 1 all custom 100 dump_${temp}K.lammpstrj id element x y z vx vy vz
dump 1 all custom 100 dump_3000K.lammpstrj id element x y z vx vy vz
dump_modify 1 element Ce O

# Run the simulation for 10000 steps
run 10000
Ewald initialization ...
  using 12-bit tables for long-range coulomb (src/kspace.cpp:342)
  G vector (1/distance) = 0.30138531
  estimated absolute RMS force accuracy = 0.046616738
  estimated relative force accuracy = 0.00014038492
  KSpace vectors: actual max1d max3d = 10239 17 21437
                  kxmax kymax kzmax  = 17 17 17
Generated 0 of 1 mixed pair_coeff terms from geometric mixing rule
Per MPI rank memory allocation (min/avg/max) = 34.61 | 34.61 | 34.61 Mbytes
   Step         PotEng         KinEng         TotEng          Temp          Press          Volume    
     50000  -3783719.2      54933.348     -3728785.8      3000           978.58157      202781.39    
     50100  -3781846.4      54195.024     -3727651.4      2959.6789      969.98472      202998.01    
     50200  -3781009.7      54555.036     -3726454.6      2979.3397     -641.77575      203782.71    
     50300  -3780075.3      54875.764     -3725199.6      2996.8552     -2182.6719      204288.5     
     50400  -3779032.7      54908.323     -3724124.4      2998.6333     -77.02702       204212.48    
     50500  -3778396.5      54861.827     -3723534.7      2996.0941      627.97167      204157.61    
     50600  -3778430.4      54770.379     -3723660.1      2991.1         675.9765       204024.66    
     50700  -3779581.6      54495.642     -3725086        2976.0961     -1507.2669      203750.88    
     50800  -3780064.8      54633.711     -3725431.1      2983.6363      1607.8406      203384.3     
     50900  -3780409.5      55338.887     -3725070.6      3022.1471     -187.47182      203471.14    
     51000  -3779654.4      55080.095     -3724574.3      3008.0141      93.950498      203623.6     
     51100  -3778923        55523.356     -3723399.7      3032.2213     -584.1508       203749.72    
     51200  -3778438.8      55952.653     -3722486.2      3055.6659      958.58722      203571.58    
     51300  -3779293.1      55373.756     -3723919.4      3024.0514      118.39375      203868.67    
     51400  -3779633.2      54960.137     -3724673.1      3001.463      -1641.5433      204246.28    
     51500  -3780424.1      55269.732     -3725154.3      3018.3705      1041.323       203937.36    
     51600  -3780052        54977.08      -3725074.9      3002.3883      346.85835      203984.44    
     51700  -3779900.1      55038.569     -3724861.5      3005.7463     -1500.6383      204068.8     
     51800  -3779717.2      55143.183     -3724574        3011.4594      1065.167       203518.78    
     51900  -3780462.6      55228.545     -3725234.1      3016.1212      2373.1158      203179.76    
     52000  -3780960.6      54577.045     -3726383.6      2980.5417     -475.89318      203861.95    
     52100  -3781098.3      54832.201     -3726266.1      2994.4762     -2512.9718      204347.73    
     52200  -3781435.9      56208.941     -3725227        3069.6622      1521.8606      203877.66    
     52300  -3780470.7      55219.153     -3725251.6      3015.6082      666.38494      203539.68    
     52400  -3781077.7      55376.208     -3725701.5      3024.1853      1194.2025      203642.82    
     52500  -3781415.1      55101.216     -3726313.9      3009.1675     -1826.7527      204395.3     
     52600  -3780386.7      54336.211     -3726050.5      2967.3893     -1514.8739      204611.99    
     52700  -3779652.3      55254.3       -3724398        3017.5277     -753.70049      203942.02    
     52800  -3780203.5      55984.352     -3724219.1      3057.397       1941.8279      203248.47    
     52900  -3780634.8      55650.843     -3724984        3039.1835      701.70473      203756.78    
     53000  -3780180.2      54365         -3725815.2      2968.9616     -3016.1132      204469.27    
     53100  -3779962.9      54666.166     -3725296.8      2985.4087      829.07737      203859.82    
     53200  -3780268.5      55383.963     -3724884.5      3024.6088      2741.0463      203394.47    
     53300  -3780150.3      55062.425     -3725087.9      3007.0491     -793.56016      203882.07    
     53400  -3780877.4      55459.274     -3725418.1      3028.7216     -2178.8186      204043.98    
     53500  -3781030.9      55252.821     -3725778.1      3017.4469      8.9416518      203543.92    
     53600  -3781306.2      54932.163     -3726374        2999.9353      464.8118       203203.33    
     53700  -3782060.8      55044.711     -3727016.1      3006.0817      485.99846      203219.62    
     53800  -3781653.4      54245.476     -3727408        2962.4342     -301.4396       203542.97    
     53900  -3780535.2      54353.102     -3726182.1      2968.3118     -1542.6417      203832.43    
     54000  -3780393.1      55186.388     -3725206.8      3013.8189      852.12702      203507.88    
     54100  -3780809        55220.018     -3725589        3015.6555      880.68285      203169.96    
     54200  -3781003        54320.18      -3726682.8      2966.5139      16.505815      203349.54    
     54300  -3781773.7      54809.512     -3726964.2      2993.2371     -1039.2524      203639.74    
     54400  -3781713.1      55099.904     -3726613.2      3009.0959     -296.67406      203409.17    
     54500  -3781288.8      55337.166     -3725951.7      3022.0532      943.81772      203146.77    
     54600  -3781978.5      56201.488     -3725777        3069.2552      1782.4725      203252.93    
     54700  -3782171.9      54818.728     -3727353.1      2993.7404     -1127.4434      203897.83    
     54800  -3782871.3      54808.022     -3728063.3      2993.1557     -791.22714      204126.17    
     54900  -3782353.3      54216.024     -3728137.3      2960.8258      605.99711      203635.35    
     55000  -3783173.6      55768.542     -3727405.1      3045.6113      800.91887      203172.21    
     55100  -3782481.1      55625.615     -3726855.5      3037.8058      422.39972      203071.13    
     55200  -3782563.9      54846.852     -3727717        2995.2763      1335.6345      203345.07    
     55300  -3782829        53916.302     -3728912.7      2944.4574     -1949.1823      204028.4     
     55400  -3783076.9      54574.543     -3728502.4      2980.4051     -483.69611      203953.47    
     55500  -3783185.2      55437.826     -3727747.4      3027.5503      1504.539       203597.64    
     55600  -3782525.4      54957.609     -3727567.8      3001.3249     -1601.556       203751.7     
     55700  -3782524.5      54598.307     -3727926.2      2981.7028     -1899.0213      203756.99    
     55800  -3783334.1      54217.416     -3729116.7      2960.9017      1052.4051      203347.37    
     55900  -3783774.5      54892.103     -3728882.4      2997.7475      767.15456      203211.36    
     56000  -3782181.7      54289.232     -3727892.5      2964.8238      222.88515      203503.76    
     56100  -3782214.5      55283.254     -3726931.3      3019.1089     -1521.7704      203930.14    
     56200  -3781898        55077.808     -3726820.2      3007.8892      319.81687      203911.51    
     56300  -3782354.7      55020.336     -3727334.4      3004.7505      942.47768      203876.03    
     56400  -3782240.3      54643.64      -3727596.6      2984.1786     -2034.6532      204131.7     
     56500  -3783156.4      55565.565     -3727590.9      3034.5264      717.23118      203835.51    
     56600  -3782709.6      54602.631     -3728107        2981.939       447.7468       203722.94    
     56700  -3783375.4      54557.42      -3728817.9      2979.47        94.173574      203738.45    
     56800  -3783882.8      53600.031     -3730282.7      2927.1854      231.29279      203650.23    
     56900  -3784052.8      54298.129     -3729754.6      2965.3097     -1545.3442      203628.35    
     57000  -3783057.3      54513.328     -3728543.9      2977.062       1028.3321      203641.69    
     57100  -3782946.2      54951.761     -3727994.5      3001.0056      179.06112      203886.02    
     57200  -3783082.6      55352.949     -3727729.6      3022.9151     -1108.6999      204226.8     
     57300  -3782037.6      54288.983     -3727748.6      2964.8102     -230.11261      204280.4     
     57400  -3783022.2      55558.354     -3727463.9      3034.1326      1575.0059      204002.07    
     57500  -3782387.8      54956.613     -3727431.2      3001.2705     -145.97885      204266.77    
     57600  -3782924.3      54819.323     -3728105        2993.7729      677.33872      204296.14    
     57700  -3782936.7      53732.52      -3729204.2      2934.4208      290.51539      204187.79    
     57800  -3784267.5      54907.86      -3729359.7      2998.608       385.63431      204254.12    
     57900  -3784035.4      55329.896     -3728705.5      3021.6561      746.92179      204581.03    
     58000  -3782454.2      55432.807     -3727021.4      3027.2762     -131.17883      204892.86    
     58100  -3782983.1      55956.912     -3727026.2      3055.8985     -545.24707      204769.9     
     58200  -3784174.7      56001.349     -3728173.4      3058.3253      1217.1776      204360.92    
     58300  -3783747.3      54899.452     -3728847.8      2998.1489      58.404412      204486.38    
     58400  -3783501        54579.134     -3728921.9      2980.6558     -476.49034      204791.79    
[...]
     94700  -3806407.4      69717.773     -3736689.7      3807.4016     -459.59155      203255.17    
     94800  -3806995        69394.192     -3737600.8      3789.7303      386.02625      202940.48    
     94900  -3808118        69537.287     -3738580.7      3797.545       436.0688       202656.85    
     95000  -3808744.2      68825.33      -3739918.9      3758.6639     -644.41742      202596.61    
     95100  -3807846.5      68058.64      -3739787.8      3716.7936      2615.9573      202589.44    
     95200  -3808757.3      71164.255     -3737593.1      3886.3963     -1767.6715      203197.31    
     95300  -3806671.5      69511.613     -3737159.9      3796.1428     -2101.4089      203702.04    
     95400  -3804962.5      68841.872     -3736120.6      3759.5672     -1392.6279      203528.3     
     95500  -3806444.1      70918.162     -3735526        3872.9568      803.91803      202855.44    
     95600  -3805759.7      69044.046     -3736715.6      3770.6083      3245.9279      202631.03    
     95700  -3807921.7      69849.996     -3738071.7      3814.6225     -1592.2082      203286.41    
     95800  -3807110.1      68917.049     -3738193        3763.6727     -1738.3232      203646.66    
     95900  -3806700.1      69233.525     -3737466.5      3780.956      -222.75287      203316.26    
     96000  -3806874        70334.633     -3736539.3      3841.0894      1363.6207      202753.99    
     96100  -3806271.9      69380.861     -3736891        3789.0023      1122.8325      202819.91    
     96200  -3806701.9      69435.663     -3737266.2      3791.9951     -1353.1737      203344.07    
     96300  -3806294.1      69173.429     -3737120.7      3777.6741     -1584.2512      203701.7     
     96400  -3806990.2      70453.92      -3736536.3      3847.6038     -1278.1031      203489.92    
     96500  -3805821.9      70193.204     -3735628.7      3833.3657      3014.5882      202851.39    
     96600  -3806248.2      71826.855     -3734421.4      3922.582       1941.7485      202838.44    
     96700  -3805567.9      69411.267     -3736156.7      3790.6628     -1230.0179      203726.83    
     96800  -3805949.1      69004.098     -3736945        3768.4267     -4887.5568      204290.56    
     96900  -3806510.2      69784.334     -3736725.8      3811.0366     -1120.6301      203345.82    
     97000  -3807131.4      70107.991     -3737023.4      3828.712       3941.6559      202055.5     
     97100  -3807550.3      68802.644     -3738747.6      3757.4249      2237.3145      202153.75    
     97200  -3808096.6      68637.079     -3739459.5      3748.3831     -1321.5074      203161.45    
     97300  -3806938.3      68428.201     -3738510.1      3736.976      -1268.5921      203666.84    
     97400  -3807374.7      70119.169     -3737255.5      3829.3225     -718.59207      203391.99    
     97500  -3807549        70909.921     -3736639.1      3872.5067     -652.19984      202911.98    
     97600  -3807124.5      69816.953     -3737307.5      3812.818       2669.1529      202658.28    
     97700  -3807962.9      69595.502     -3738367.4      3800.7242     -225.19619      203042.04    
     97800  -3808527.4      68941.843     -3739585.6      3765.0268     -1978.9023      203315.4     
     97900  -3807864.6      68231.246     -3739633.4      3726.2199      641.27362      202837.07    
     98000  -3807035.2      69456.91      -3737578.3      3793.1554      3845.1928      202528.35    
     98100  -3806919.2      70139.729     -3736779.4      3830.4453      985.66024      203146.06    
     98200  -3806011.5      69044.357     -3736967.1      3770.6253     -2092.7443      203708.75    
     98300  -3806629.2      70064.04      -3736565.2      3826.3118     -1854.2255      203484.26    
     98400  -3806532.3      70045.479     -3736486.8      3825.2982      853.04437      202836.91    
     98500  -3806471.6      68886.117     -3737585.5      3761.9835      903.78688      202584.15    
     98600  -3808026.6      69225.919     -3738800.7      3780.5406     -172.82099      202780.76    
     98700  -3808154.5      69285.191     -3738869.3      3783.7776     -372.57177      203049.87    
     98800  -3807186.8      69424.027     -3737762.7      3791.3597     -413.20835      203154.71    
     98900  -3805540        69535.838     -3736004.1      3797.4658      244.10045      203184.79    
     99000  -3807323.4      71111.822     -3736211.6      3883.5329     -321.24944      203382.54    
     99100  -3806449.3      69444.359     -3737004.9      3792.47       -1796.983       203585.42    
     99200  -3807486.7      69757.82      -3737728.8      3809.5886      699.74825      203187.62    
     99300  -3806890.8      67983.866     -3738906.9      3712.7101      1119.4088      202818.56    
     99400  -3809115.7      68501.748     -3740614        3740.9925      627.16694      202691.16    
     99500  -3808125.8      67028.368     -3741097.4      3660.5288      149.3431       202730.04    
     99600  -3809107.4      69950.83      -3739156.6      3820.1293     -254.17072      202852.8     
     99700  -3806339.9      67843.331     -3738496.6      3705.0353      477.05872      202792.65    
     99800  -3806607.8      69542.413     -3737065.4      3797.8249      528.40103      202887.99    
     99900  -3807370.7      71007.361     -3736363.3      3877.8281     -1568.3943      203244.72    
    100000  -3805788.3      68852.429     -3736935.9      3760.1437     -988.26934      203358.12    
Loop time of 4266.47 on 8 procs for 10000 steps with 6144 atoms

Performance: 0.203 ns/day, 118.513 hours/ns, 2.344 timesteps/s, 14.401 katom-step/s
12.9% CPU use with 8 MPI tasks x 1 OpenMP threads

MPI task timing breakdown:
Section |  min time  |  avg time  |  max time  |%varavg| %total
---------------------------------------------------------------
Pair    | 20.8       | 22.068     | 22.895     |  13.4 |  0.52
Kspace  | 2217.1     | 3325.2     | 4186.9     |1023.6 | 77.94
Neigh   | 1.6792     | 1.7338     | 1.808      |   2.9 |  0.04
Comm    | 45.319     | 906.82     | 2014.9     |1960.3 | 21.25
Output  | 0.23864    | 0.2408     | 0.24225    |   0.3 |  0.01
Modify  | 7.821      | 7.9008     | 7.9955     |   2.5 |  0.19
Other   |            | 2.452      |            |       |  0.06

Nlocal:            768 ave         782 max         759 min
Histogram: 1 3 0 1 0 0 1 1 0 1
Nghost:           3681 ave        3703 max        3673 min
Histogram: 2 1 2 2 0 0 0 0 0 1
Neighs:          85141 ave       88131 max       81954 min
Histogram: 1 0 1 1 2 0 0 1 1 1

Total # of neighbors = 681128
Ave neighs/atom = 110.86068
Neighbor list builds = 576
Dangerous builds = 0

# Unfix the previous fix to prepare for the next loop iteration
unfix 1

# Dump settings will be cleared with the unfix command, so we remove it
undump 1

# Next iteration
next temp
jump SELF loop_temperature

# Set velocities for initial temperature of ${temp} K
velocity all create ${temp} 87287 loop geom
velocity all create 4000 87287 loop geom

# Apply NPT ensemble with P = 1 atm, T = ${temp} K, timestep = 1.0 fs, temperature damping = 100 fs (100x timestep), pressure damping = 1000 fs (1000x timestep)
fix 1 all npt temp ${temp} ${temp} 100.0 iso 1.0 1.0 1000.0
fix 1 all npt temp 4000 ${temp} 100.0 iso 1.0 1.0 1000.0
fix 1 all npt temp 4000 4000 100.0 iso 1.0 1.0 1000.0
thermo 100
thermo_style custom step pe ke etotal temp press vol

# Output dump
dump 1 all custom 100 dump_${temp}K.lammpstrj id element x y z vx vy vz
dump 1 all custom 100 dump_4000K.lammpstrj id element x y z vx vy vz
dump_modify 1 element Ce O

# Run the simulation for 10000 steps
run 10000
Ewald initialization ...
  using 12-bit tables for long-range coulomb (src/kspace.cpp:342)
  G vector (1/distance) = 0.30136175
  estimated absolute RMS force accuracy = 0.046959547
  estimated relative force accuracy = 0.00014141728
  KSpace vectors: actual max1d max3d = 10239 17 21437
                  kxmax kymax kzmax  = 17 17 17
Generated 0 of 1 mixed pair_coeff terms from geometric mixing rule
Per MPI rank memory allocation (min/avg/max) = 34.61 | 34.61 | 34.61 Mbytes
   Step         PotEng         KinEng         TotEng          Temp          Press          Volume    
    100000  -3805804.3      73244.465     -3732559.8      4000           31.239737      203358.12    
    100100  -3803709.6      72436.679     -3731272.9      3955.8855      1284.369       203655.91    
    100200  -3803113.4      73288.226     -3729825.2      4002.3899     -1459.4448      204337.69    
    100300  -3801234.9      72698.095     -3728536.8      3970.1618     -1472.1708      204651.45    
    100400  -3800586.7      72978.223     -3727608.5      3985.4601      607.18072      204269.1     
    100500  -3801552.2      74563.888     -3726988.3      4072.0559      1455.4987      203928.88    
    100600  -3800946.8      73040.934     -3727905.9      3988.8848     -629.11508      204248.78    
    100700  -3802060.3      72219.079     -3729841.2      3944.002      -1572.0169      204507.43    
    100800  -3802535.5      72853.87      -3729681.6      3978.669      -0.4228801      204139.2     
    100900  -3801773.1      72913.731     -3728859.4      3981.9381      1871.5792      203596.67    
    101000  -3801775.1      73663.152     -3728112        4022.8652      2630.9158      203559.84    
    101100  -3800276        73138.617     -3727137.4      3994.2195      1383.689       204256.98    
    101200  -3798881        73563.657     -3725317.3      4017.4316     -2217.9686      205281.94    
    101300  -3799468.8      74039.31      -3725429.5      4043.4078     -3344.8199      205546.45    
    101400  -3801200.1      74335.214     -3726864.9      4059.5676     -1751.5299      204745.56    
    101500  -3802502.3      74440.984     -3728061.3      4065.3439      2352.8161      203552.92    
    101600  -3801674.2      73080.99      -3728593.2      3991.0724      4017.4164      203399.53    
    101700  -3802400.2      73535.515     -3728864.7      4015.8947      466.56844      204273.86    
    101800  -3800247.8      71116.327     -3729131.5      3883.7789     -2171.8967      204837.88    
    101900  -3801383.1      73904.007     -3727479.1      4036.0187      90.237552      204498.27    
    102000  -3800323.5      73639.329     -3726684.2      4021.5642      1957.1002      204063.01    
    102100  -3801184.1      73584.408     -3727599.6      4018.5649     -165.8662       204186.3     
    102200  -3801294.7      72554.078     -3728740.6      3962.2969     -855.9879       204389.78    
    102300  -3801590.8      72738.902     -3728851.9      3972.3904     -242.74917      204258.44    
    102400  -3801690.8      73117.013     -3728573.8      3993.0397      2268.9912      203865.58    
    102500  -3801711.8      73543.124     -3728168.6      4016.3103      1782.7986      203955.61    
    102600  -3800388.6      73527.112     -3726861.5      4015.4358     -844.42014      204514.61    
    102700  -3799554        74057.208     -3725496.8      4044.3852     -943.58645      204770.58    
    102800  -3799001.7      73390.512     -3725611.2      4007.9759      332.91439      204810.66    
    102900  -3801018.3      73139.983     -3727878.3      3994.2941     -1665.6454      204741.23    
    103000  -3802240.5      73745.596     -3728494.9      4027.3676      63.195487      204283.36    
    103100  -3802348.7      74226.297     -3728122.4      4053.6195      898.82939      203855.2     
    103200  -3800741.1      73383.52      -3727357.6      4007.594       2017.245       203881.63    
    103300  -3799386.4      72674.447     -3726712        3968.8704     -275.51338      204399.97    
    103400  -3799829.1      73099.398     -3726729.7      3992.0777     -2126.2276      204941.2     
    103500  -3799748.8      73730.249     -3726018.6      4026.5295     -911.99159      204977.13    
    103600  -3799601.5      73906.842     -3725694.6      4036.1735     -268.22759      204524.98    
    103700  -3800277.1      73319.576     -3726957.6      4004.1019      2556.2603      204093.01    
    103800  -3800931.1      72555.475     -3728375.6      3962.3731     -215.37914      204094.25    
    103900  -3800961.2      72859.405     -3728101.8      3978.9712      286.04369      204298.24    
    104000  -3800968.9      73397.148     -3727571.8      4008.3383     -933.33518      204471.33    
    104100  -3800661.5      74815.22      -3725846.3      4085.7815     -318.95942      204452.89    
    104200  -3798956.9      73940.583     -3725016.3      4038.0161      156.21444      204581.01    
    104300  -3800123        73766.262     -3726356.7      4028.4962     -2034.9435      204912.62    
    104400  -3801485.8      73512.559     -3727973.3      4014.6411     -1098.4641      204644.67    
    104500  -3801206.4      73484.448     -3727721.9      4013.1059      786.75994      203928.1     
    104600  -3801408.9      73982.198     -3727426.7      4040.2889      1522.0281      203681.17    
    104700  -3802406.6      74809.752     -3727596.9      4085.4829     -1170.6768      204117.59    
    104800  -3801304.3      72727.698     -3728576.6      3971.7785     -1317.1532      204565.52    
    104900  -3801956.8      73111.927     -3728844.9      3992.7619     -1772.6842      204518.03    
    105000  -3800793.9      73307.937     -3727486        4003.4663      1362.2682      204062.79    
    105100  -3800969.5      74589.825     -3726379.7      4073.4723      987.04893      203947.13    
    105200  -3800194.8      73777.389     -3726417.4      4029.1039      205.26414      204430.2     
    105300  -3799913        72265.346     -3727647.6      3946.5287     -1990.565       205008.43    
    105400  -3801677.1      72538.171     -3729138.9      3961.4282     -3115.9596      204737.26    
    105500  -3801584.2      73104.289     -3728479.9      3992.3448      2542.7799      203613.43    
    105600  -3802209        74046.064     -3728162.9      4043.7766      4039.5237      203247.02    
    105700  -3801123.8      71809.073     -3729314.7      3921.6109     -28.021433      204156.33    
    105800  -3803043.5      72555.978     -3730487.6      3962.4006     -4411.7357      205013.39    
    105900  -3801964.2      72655.619     -3729308.6      3967.8422     -1985.7792      204650.72    
    106000  -3800642.2      72718.353     -3727923.8      3971.2682      1996.4077      203727.46    
    106100  -3801970.6      73969.443     -3728001.1      4039.5923      2618.0747      203426.32    
    106200  -3801492.5      72362.981     -3729129.6      3951.8607      448.89518      203973.45    
    106300  -3802759.7      73375.794     -3729383.9      4007.1721     -1199.3694      204642.45    
    106400  -3802354.1      73879.491     -3728474.6      4034.6798     -2350.1959      204712.91    
    106500  -3800297.7      73798.209     -3726499.5      4030.2409     -182.32992      204326.98    
    106600  -3801555.3      75008.553     -3726546.7      4096.3398     -780.81304      204134.96    
    106700  -3801544.7      73547.122     -3727997.6      4016.5286     -864.47103      204211.86    
    106800  -3801532.7      72990.882     -3728541.9      3986.1515     -229.41714      204373.54    
    106900  -3800704.6      72608.516     -3728096.1      3965.2698     -386.76015      204369.9     
    107000  -3800445        73067.674     -3727377.4      3990.3452     -1069.9789      204186.1     
    107100  -3801012.7      73619.76      -3727392.9      4020.4955      1100.2174      204089.86    
    107200  -3800825.7      72985.161     -3727840.6      3985.839      -518.14315      204289.93    
    107300  -3800609.5      72472.215     -3728137.3      3957.8262     -1338.0292      204425.55    
    107400  -3801144.4      72885.676     -3728258.7      3980.406      -472.14087      204292.42    
    107500  -3800746.7      73305.337     -3727441.3      4003.3244     -5.8817617      204051.17    
    107600  -3799874.8      74015.007     -3725859.8      4042.0806      2698.2445      203924.77    
    107700  -3800178.2      74153.547     -3726024.6      4049.6465      200.30639      204466.57    
    107800  -3800269.3      72898.409     -3727370.9      3981.1013     -2145.6302      205023.19    
    107900  -3800696.3      72887.477     -3727808.8      3980.5043     -2349.1827      204801.36    
    108000  -3799865.2      72291.055     -3727574.1      3947.9328      2940.4595      203893.98    
    108100  -3801204.2      73798.595     -3727405.6      4030.262       1474.6357      203771.45    
    108200  -3800381.5      72298.954     -3728082.5      3948.3641      794.84606      204267.59    
    108300  -3800430.1      71802.044     -3728628.1      3921.2271     -1187.9051      204625.9     
    108400  -3801096.4      73194.726     -3727901.7      3997.2837      750.64789      204417.22    
    108500  -3800298.6      73716.795     -3726581.8      4025.7948      80.656204      204127.33    
    108600  -3800494.6      74096.902     -3726397.7      4046.553       2541.7803      204139.64    
    108700  -3801883.3      74275.001     -3727608.3      4056.2793     -1312.3107      204603.57    
    108800  -3800988.3      72144.099     -3728844.2      3939.9072     -2370.5042      204700.05    
    108900  -3800900.3      72176.995     -3728723.3      3941.7037      633.64677      204134.2     
    109000  -3800622.7      73531.975     -3727090.7      4015.7014      3034.2053      203712.5     
    109100  -3799574.1      74163.936     -3725410.1      4050.2139      1986.2875      204029.1     
    109200  -3799879.3      73445.233     -3726434.1      4010.9643     -1556.1085      204812.2     
    109300  -3799923.8      72722.559     -3727201.2      3971.4979     -2727.0955      205063.93    
    109400  -3800586.2      72671.6       -3727914.6      3968.715      -653.42314      204466.14    
    109500  -3801153.2      72265.009     -3728888.2      3946.5103      1137.6417      203762.64    
    109600  -3803704.2      73290.391     -3730413.8      4002.5081      791.13018      203576.97    
    109700  -3803135.7      72194.559     -3730941.1      3942.6629      449.48097      203864.38    
    109800  -3801504.4      72104.636     -3729399.8      3937.7521     -1991.8319      204271.86    
    109900  -3801399.5      73216.845     -3728182.7      3998.4916     -404.21146      204302.24    
    110000  -3800857.5      73721.784     -3727135.8      4026.0672      961.35182      204317.73    
Loop time of 618.102 on 8 procs for 10000 steps with 6144 atoms

Performance: 1.398 ns/day, 17.170 hours/ns, 16.179 timesteps/s, 99.401 katom-step/s
96.5% CPU use with 8 MPI tasks x 1 OpenMP threads

MPI task timing breakdown:
Section |  min time  |  avg time  |  max time  |%varavg| %total
---------------------------------------------------------------
Pair    | 21.141     | 22.034     | 22.798     |  10.3 |  3.56
Kspace  | 538.91     | 543.45     | 546.04     |  10.0 | 87.92
Neigh   | 1.7127     | 1.7905     | 1.8366     |   3.4 |  0.29
Comm    | 41.059     | 44.122     | 48.796     |  38.8 |  7.14
Output  | 0.24148    | 0.24494    | 0.24738    |   0.4 |  0.04
Modify  | 4.5468     | 4.6048     | 4.6544     |   1.7 |  0.74
Other   |            | 1.857      |            |       |  0.30

Nlocal:            768 ave         776 max         758 min
Histogram: 1 1 0 1 0 1 0 2 1 1
Nghost:         3684.5 ave        3695 max        3670 min
Histogram: 2 1 0 0 0 0 0 2 0 3
Neighs:        84746.8 ave       87002 max       82301 min
Histogram: 2 0 1 0 1 1 0 1 0 2

Total # of neighbors = 677974
Ave neighs/atom = 110.34733
Neighbor list builds = 596
Dangerous builds = 0

# Unfix the previous fix to prepare for the next loop iteration
unfix 1

# Dump settings will be cleared with the unfix command, so we remove it
undump 1

# Next iteration
next temp
jump SELF loop_temperature
Total wall time: 2:44:53
