LAMMPS (28 Mar 2023 - Update 1)
OMP_NUM_THREADS environment is not set. Defaulting to 1 thread. (src/comm.cpp:98)
  using 1 OpenMP thread(s) per MPI task
# LAMMPS input script using real units

units real
atom_style charge
boundary p p p

# Create lattice (Note: Adjust the lattice parameters as necessary)
lattice custom 5.411 basis 0.00 0.00 0.00                      basis 0.00 0.50 0.50                      basis 0.50 0.00 0.50                      basis 0.50 0.50 0.00                      basis 0.25 0.75 0.75                      basis 0.75 0.25 0.25                      basis 0.25 0.25 0.25                      basis 0.75 0.75 0.75                      basis 0.75 0.75 0.25                      basis 0.25 0.25 0.75                      basis 0.75 0.25 0.75                      basis 0.25 0.75 0.25
Lattice spacing in x,y,z = 5.411 5.411 5.411
region box block 0 8 0 8 0 8
create_box 2 box
Created orthogonal box = (0 0 0) to (43.288 43.288 43.288)
  2 by 2 by 2 MPI processor grid
create_atoms 1 box basis 1 1 basis 2 1 basis 3 1 basis 4 1                    basis 5 2 basis 6 2 basis 7 2 basis 8 2 basis 9 2 basis 10 2 basis 11 2 basis 12 2
Created 6144 atoms
  using lattice units in orthogonal box = (0 0 0) to (43.288 43.288 43.288)
  create_atoms CPU = 0.003 seconds

# Mass of Ce and O in atomic units
mass 1 140.116   # Cerium
mass 2 15.999    # Oxygen

# Set charges for the atom types
set type 1 charge 4.0   # Charge for Cerium (Ce)
Setting atom values ...
  2048 settings made for charge
set type 2 charge -2.0  # Charge for Oxygen (O)
Setting atom values ...
  4096 settings made for charge

# Naming atom types for OVITO visualization
group Ce type 1
2048 atoms in group Ce
group O type 2
4096 atoms in group O

# Dump the initial configuration
dump init all custom 1 initial_config.lammpstrj id element x y z vx vy vz
dump_modify init element Ce O first yes
run 0
WARNING: No fixes with time integration, atoms won't move (src/verlet.cpp:60)
WARNING: No pairwise cutoff or binsize set. Atom sorting therefore disabled. (src/atom.cpp:2355)
WARNING: Communication cutoff is 0.0. No ghost atoms will be generated. Atoms may get lost. (src/comm_brick.cpp:210)
Per MPI rank memory allocation (min/avg/max) = 3.719 | 3.719 | 3.719 Mbytes
   Step          Temp          E_pair         E_mol          TotEng         Press     
         0   0              0              0              0              0            
Loop time of 3.6615e-06 on 8 procs for 0 steps with 6144 atoms

92.2% CPU use with 8 MPI tasks x 1 OpenMP threads

MPI task timing breakdown:
Section |  min time  |  avg time  |  max time  |%varavg| %total
---------------------------------------------------------------
Pair    | 0          | 0          | 0          |   0.0 |  0.00
Neigh   | 0          | 0          | 0          |   0.0 |  0.00
Comm    | 0          | 0          | 0          |   0.0 |  0.00
Output  | 0          | 0          | 0          |   0.0 |  0.00
Modify  | 0          | 0          | 0          |   0.0 |  0.00
Other   |            | 3.661e-06  |            |       |100.00

Nlocal:            768 ave         768 max         768 min
Histogram: 8 0 0 0 0 0 0 0 0 0
Nghost:            109 ave         109 max         109 min
Histogram: 8 0 0 0 0 0 0 0 0 0
Neighs:              0 ave           0 max           0 min
Histogram: 8 0 0 0 0 0 0 0 0 0

Total # of neighbors = 0
Ave neighs/atom = 0
Neighbor list builds = 0
Dangerous builds = 0
undump init

# Stop LAMMPS after generating the initial dump file for debugging
# quit

# Buckingham potential with Coulombic term
pair_style buck/coul/long 10.0
pair_coeff 1 1 0.0 1.0 0.0
pair_coeff 1 2 27127.1511 0.3810 0.0
pair_coeff 2 2 524856.597 0.1490 643.164436

# I converted these to kcal/mol above, but the original values are below
# pair_coeff 1 2 11.350e4 0.3810 0.0
# pair_coeff 2 2 21.960e5 0.1490 2.691e3

# pair_coeff 1 1 A1 B1 C1
# pair_coeff 1 2 A12 B12 C12
# pair_coeff 2 2 A2 B2 C2

# Note: The parameters A, B, and C need to be provided for Ce-Ce, Ce-O, and O-O interactions.
# A = repulsive potential coefficient
# B = repulsive potential exponent
# C = van der Waals interaction coefficient
# Replace A1, B1, C1, A12, B12, C12, A2, B2, and C2 with their respective values.

kspace_style ewald 1.0e-4

# Timestep of 1 fs (since we are using real units)
timestep 1.0

# Loop over temperatures from 2000 K to 4000 K in increments of 200 K
variable temp index 2000 2200 2400 2600 2800 3000 3200 3400 3600 3800 4000
label loop_temperature

# Set velocities for initial temperature of ${temp} K
velocity all create ${temp} 87287 loop geom
velocity all create 2000 87287 loop geom

# Apply NPT ensemble with P = 1 atm, T = ${temp} K, timestep = 1.0 fs, temperature damping = 100 fs (100x timestep), pressure damping = 1000 fs (1000x timestep)
fix 1 all npt temp ${temp} ${temp} 100.0 aniso 1.0 1.0 1000.0
fix 1 all npt temp 2000 ${temp} 100.0 aniso 1.0 1.0 1000.0
fix 1 all npt temp 2000 2000 100.0 aniso 1.0 1.0 1000.0
thermo 100
thermo_style custom step pe ke etotal temp press vol

# Output dump
dump 1 all custom 100 dump_${temp}K.lammpstrj id element x y z vx vy vz
dump 1 all custom 100 dump_2000K.lammpstrj id element x y z vx vy vz
dump_modify 1 element Ce O

# Run the simulation for 10000 steps
run 10000
Ewald initialization ...
  using 12-bit tables for long-range coulomb (src/kspace.cpp:342)
  G vector (1/distance) = 0.3088922
  estimated absolute RMS force accuracy = 0.034397518
  estimated relative force accuracy = 0.0001035871
  KSpace vectors: actual max1d max3d = 5756 14 12194
                  kxmax kymax kzmax  = 14 14 14
Generated 0 of 1 mixed pair_coeff terms from geometric mixing rule
Neighbor list info ...
  update: every = 1 steps, delay = 0 steps, check = yes
  max neighbors/atom: 2000, page size: 100000
  master list distance cutoff = 12
  ghost atom cutoff = 12
  binsize = 6, bins = 8 8 8
  1 neighbor lists, perpetual/occasional/extra = 1 0 0
  (1) pair buck/coul/long, perpetual
      attributes: half, newton on
      pair build: half/bin/atomonly/newton
      stencil: half/bin/3d
      bin: standard
Per MPI rank memory allocation (min/avg/max) = 29.01 | 29.01 | 29.01 Mbytes
   Step         PotEng         KinEng         TotEng          Temp          Press          Volume    
         0  -4919029.4      36622.232     -4882407.1      2000           3303.1875      81115.26     
       100  -4899960.8      19594.078     -4880366.7      1070.0647     -2420.5668      82573.422    
       200  -4896816.3      20593.79      -4876222.5      1124.6605     -13895.552      83351.743    
       300  -4894848.6      23375.85      -4871472.7      1276.5934      8489.6354      82649.614    
       400  -4892062.6      25853.78      -4866208.8      1411.9172      9561.6986      82868.861    
       500  -4888858.4      28212.134     -4860646.3      1540.7108     -6113.8085      83847.375    
       600  -4885974.7      31032.684     -4854942        1694.7456     -2751.0556      84062.304    
       700  -4883515.5      33981.167     -4849534.4      1855.7671      5453.9932      83999.557    
       800  -4880681.1      35791.157     -4844889.9      1954.6136      1478.1666      84426.139    
       900  -4878977.1      37530.058     -4841447.1      2049.5778     -2328.8354      84837.801    
      1000  -4877640.1      37626.931     -4840013.1      2054.8683     -1696.989       84846.063    
      1100  -4878580.6      37505.413     -4841075.2      2048.2319      1753.5102      84671.433    
      1200  -4880326.3      36886.429     -4843439.8      2014.4282     -1882.5573      84642.009    
      1300  -4881023.2      36036.915     -4844986.3      1968.0349     -3120.8137      84555.344    
      1400  -4881163.6      36333.357     -4844830.2      1984.2241      2271.8976      84375.37     
      1500  -4879997.1      36676.204     -4843320.9      2002.9475      290.022        84524.961    
      1600  -4878588        36615.72      -4841972.3      1999.6444      909.34149      84754.38     
      1700  -4878341.4      37049.307     -4841292.1      2023.3232     -3632.6405      84857.259    
      1800  -4879211.4      37207.887     -4842003.5      2031.9836      2480.7647      84581.422    
      1900  -4879859        36214.685     -4843644.4      1977.7432      1124.6141      84464.571    
      2000  -4880615.1      35905.642     -4844709.5      1960.8658     -1770.4455      84539.767    
      2100  -4880021.3      35598.781     -4844422.6      1944.1077      1587.6383      84496.289    
      2200  -4879523.7      36528.345     -4842995.3      1994.8727      2803.9916      84526.84     
      2300  -4878625.2      36822.463     -4841802.8      2010.9349     -1911.8449      84776.16     
      2400  -4878708.8      37160.421     -4841548.4      2029.3914     -3105.2385      84835.981    
      2500  -4878904.1      36404.396     -4842499.7      1988.1036      2672.7305      84583.963    
      2600  -4880312.9      36604.684     -4843708.2      1999.0416      1091.5282      84518.474    
      2700  -4880836.2      36499.695     -4844336.5      1993.308      -2225.1576      84611.438    
      2800  -4880306.9      36383.805     -4843923.1      1986.9791      1052.3777      84531.656    
      2900  -4879616.5      36928.082     -4842688.4      2016.7029      1334.6552      84549.614    
      3000  -4879167.8      37210.17      -4841957.7      2032.1082     -118.35226      84713.8      
      3100  -4879257.9      37193.387     -4842064.6      2031.1917     -3104.1567      84821.977    
      3200  -4879853.2      37010.723     -4842842.5      2021.2161     -117.54983      84620.647    
      3300  -4880468.5      36665.557     -4843803        2002.366       3496.2107      84417.44     
      3400  -4880229.5      35881.347     -4844348.2      1959.539       199.45428      84548.485    
      3500  -4880298.2      36525.184     -4843773        1994.7        -3269.423       84707.055    
      3600  -4879452.5      36935.3       -4842517.2      2017.0971      275.2198       84632.839    
      3700  -4879858.9      38177.807     -4841681.1      2084.9525      973.53568      84625.429    
      3800  -4878882.6      36717.777     -4842164.9      2005.2179     -974.59467      84763.753    
      3900  -4879553.2      36444.941     -4843108.3      1990.3178     -2141.351       84720.803    
      4000  -4879645.1      35742.285     -4843902.8      1951.9446      3849.8084      84454.044    
      4100  -4880097.3      36188.628     -4843908.7      1976.3202      630.68839      84476.229    
      4200  -4879729.1      36349.977     -4843379.1      1985.1317      257.08256      84653.738    
      4300  -4879550.9      37050.516     -4842500.4      2023.3893     -1614.115       84654.227    
      4400  -4879029        36985.323     -4842043.7      2019.829       3521.1706      84550.253    
      4500  -4879409        36905.151     -4842503.8      2015.4507     -642.43828      84736.524    
      4600  -4879775.6      36496.531     -4843279.1      1993.1353     -3198.3707      84761.82     
      4700  -4879972.5      36341.498     -4843631        1984.6686      1882.5288      84523.137    
      4800  -4879884.6      36332.619     -4843552        1984.1838      4103.4988      84437.689    
      4900  -4879403.5      36174.706     -4843228.8      1975.5599      684.15875      84661.081    
      5000  -4879170.6      36570.321     -4842600.2      1997.1651     -3460.2683      84770.907    
      5100  -4879406.9      37167.181     -4842239.8      2029.7605      3371.5104      84537.275    
      5200  -4879514.8      36879.109     -4842635.7      2014.0285      1663.8397      84542.219    
      5300  -4879593.9      36114.768     -4843479.1      1972.2866     -718.96895      84673.272    
      5400  -4879904.6      36067.68      -4843836.9      1969.715       130.03164      84615.5      
      5500  -4879640.4      36195.61      -4843444.8      1976.7015      3559.0839      84509.211    
      5600  -4879212.4      36334.737     -4842877.6      1984.2994      1805.1545      84619.856    
      5700  -4879772.4      37422.137     -4842350.3      2043.6841     -4435.0597      84805.83     
      5800  -4879014        36750.836     -4842263.2      2007.0233     -649.03786      84695.971    
      5900  -4879508.7      36737.438     -4842771.3      2006.2916      1583.3168      84526.305    
      6000  -4879989.6      36366.394     -4843623.2      1986.0282      394.66202      84634.272    
      6100  -4880012.2      36144.847     -4843867.3      1973.9292     -1866.045       84747.991    
      6200  -4879518.2      36284.735     -4843233.4      1981.5687      1734.998       84611.602    
      6300  -4880038.3      37661.625     -4842376.7      2056.763       1172.181       84537.592    
      6400  -4879156.4      36828.447     -4842328        2011.2617      656.60563      84678.766    
      6500  -4879393.1      36646.039     -4842747.1      2001.3001     -4350.7401      84814.858    
      6600  -4879855.7      36625.743     -4843229.9      2000.1917      4.6664547      84553.147    
      6700  -4880250.3      36629.507     -4843620.7      2000.3973      3836.7369      84363.726    
      6800  -4879890.3      36070.304     -4843820        1969.8583      31.334881      84600.479    
      6900  -4879779        36499.344     -4843279.7      1993.2889     -4577.3718      84770.186    
      7000  -4879388.9      36913.284     -4842475.6      2015.8948      5894.977       84477.772    
      7100  -4879087.1      36786.184     -4842300.9      2008.9537      1999.7187      84551.017    
      7200  -4879439.7      36548.971     -4842890.8      1995.9991     -4812.1081      84842.281    
      7300  -4879850.4      36568.305     -4843282.1      1997.0549     -1452.4048      84660.841    
      7400  -4880577.3      37127.141     -4843450.2      2027.5739      5244.0984      84306.505    
      7500  -4879661.4      36046.171     -4843615.3      1968.5404      1857.8049      84567.398    
      7600  -4879664.9      36414.325     -4843250.5      1988.6459     -7775.7079      84904.36     
      7700  -4879428.2      36959.417     -4842468.8      2018.4142      4213.4735      84485.958    
      7800  -4878997.3      36727.329     -4842270        2005.7395      5934.3868      84419.003    
      7900  -4879641.2      36750.766     -4842890.5      2007.0194     -5465.763       84855.208    
      8000  -4879803.6      36403.324     -4843400.2      1988.045      -4138.1179      84763.419    
      8100  -4879581.9      36183.451     -4843398.4      1976.0374      7036.125       84321.796    
      8200  -4880182.9      36861.952     -4843320.9      2013.0915      1764.5048      84498.218    
      8300  -4879909.4      36860.335     -4843049.1      2013.0032     -6448.0759      84881.151    
      8400  -4879108.5      36602.041     -4842506.4      1998.8973     -304.77777      84687.555    
      8500  -4879815.8      37594.392     -4842221.4      2053.0912      3334.6251      84457.074    
      8600  -4879680.7      36780.602     -4842900.1      2008.6489     -575.91644      84641.048    
      8700  -4879781.8      36316.861     -4843464.9      1983.3232     -5140.5254      84773.615    
      8800  -4880017.7      36465.297     -4843552.4      1991.4295      2816.9094      84501.414    
      8900  -4880163.3      36945.421     -4843217.8      2017.6498      4428.2857      84478.533    
      9000  -4879442.8      36626.441     -4842816.4      2000.2299     -4921.9202      84820.425    
      9100  -4878998.3      36662.347     -4842336        2002.1907     -1354.5215      84721.765    
      9200  -4879907.6      37646.675     -4842260.9      2055.9465      2149.9052      84553.732    
      9300  -4879482.6      36349.787     -4843132.8      1985.1213     -1215.3417      84683.195    
      9400  -4879736.8      36279.377     -4843457.4      1981.2761      637.49535      84643.77     
      9500  -4879529.6      36264.156     -4843265.4      1980.4449      1273.9669      84572.731    
      9600  -4879199.7      36195.723     -4843004        1976.7076     -116.12229      84716.015    
      9700  -4879001        37085.918     -4841915        2025.3227     -2153.2742      84822.607    
      9800  -4879260.7      37716.095     -4841544.6      2059.7377      49.328245      84727.042    
      9900  -4879330.1      37040.013     -4842290.1      2022.8157      2342.4337      84661.803    
     10000  -4879563.2      36708.02      -4842855.2      2004.685      -1292.9595      84697.215    
Loop time of 351.979 on 8 procs for 10000 steps with 6144 atoms

Performance: 2.455 ns/day, 9.777 hours/ns, 28.411 timesteps/s, 174.556 katom-step/s
99.0% CPU use with 8 MPI tasks x 1 OpenMP threads

MPI task timing breakdown:
Section |  min time  |  avg time  |  max time  |%varavg| %total
---------------------------------------------------------------
Pair    | 41.174     | 43.185     | 44.955     |  19.5 | 12.27
Kspace  | 270.67     | 272.34     | 277.26     |  11.9 | 77.37
Neigh   | 1.7271     | 1.8013     | 1.8496     |   3.4 |  0.51
Comm    | 28.89      | 31.762     | 33.761     |  26.5 |  9.02
Output  | 0.20938    | 0.21225    | 0.21306    |   0.2 |  0.06
Modify  | 1.905      | 1.9257     | 1.9446     |   0.9 |  0.55
Other   |            | 0.7501     |            |       |  0.21

Nlocal:            768 ave         780 max         756 min
Histogram: 1 1 1 0 1 1 1 0 1 1
Nghost:           5871 ave        5895 max        5847 min
Histogram: 1 1 0 1 1 1 0 2 0 1
Neighs:         200810 ave      210933 max      191483 min
Histogram: 1 1 1 2 0 0 0 1 0 2

Total # of neighbors = 1606484
Ave neighs/atom = 261.47201
Neighbor list builds = 346
Dangerous builds = 0

# Unfix the previous fix to prepare for the next loop iteration
unfix 1

# Dump settings will be cleared with the unfix command, so we remove it
undump 1

# Next iteration
next temp
jump SELF loop_temperature

# Set velocities for initial temperature of ${temp} K
velocity all create ${temp} 87287 loop geom
velocity all create 2200 87287 loop geom

# Apply NPT ensemble with P = 1 atm, T = ${temp} K, timestep = 1.0 fs, temperature damping = 100 fs (100x timestep), pressure damping = 1000 fs (1000x timestep)
fix 1 all npt temp ${temp} ${temp} 100.0 aniso 1.0 1.0 1000.0
fix 1 all npt temp 2200 ${temp} 100.0 aniso 1.0 1.0 1000.0
fix 1 all npt temp 2200 2200 100.0 aniso 1.0 1.0 1000.0
thermo 100
thermo_style custom step pe ke etotal temp press vol

# Output dump
dump 1 all custom 100 dump_${temp}K.lammpstrj id element x y z vx vy vz
dump 1 all custom 100 dump_2200K.lammpstrj id element x y z vx vy vz
dump_modify 1 element Ce O

# Run the simulation for 10000 steps
run 10000
Ewald initialization ...
  using 12-bit tables for long-range coulomb (src/kspace.cpp:342)
  G vector (1/distance) = 0.30854227
  estimated absolute RMS force accuracy = 0.035215918
  estimated relative force accuracy = 0.00010605169
  KSpace vectors: actual max1d max3d = 5756 14 12194
                  kxmax kymax kzmax  = 14 14 14
Generated 0 of 1 mixed pair_coeff terms from geometric mixing rule
Per MPI rank memory allocation (min/avg/max) = 29.01 | 29.01 | 29.01 Mbytes
   Step         PotEng         KinEng         TotEng          Temp          Press          Volume    
     10000  -4879564.2      40284.456     -4839279.8      2200           629.17256      84697.215    
     10100  -4877464.9      39311.115     -4838153.8      2146.8443      181.3776       84833.045    
     10200  -4876205.9      39319.912     -4836886        2147.3247     -2144.3785      85048.88     
     10300  -4875676        40160.934     -4835515.1      2193.2543      1738.7344      85025.055    
     10400  -4875177        40579.056     -4834598        2216.0886      719.9529       85035.334    
     10500  -4874666.3      40192.677     -4834473.7      2194.9878      165.35255      85160.689    
     10600  -4875394.4      40680.783     -4834713.6      2221.6441     -4716.4269      85293.927    
     10700  -4876221.6      40933.116     -4835288.5      2235.4244     -1182.4638      85073.447    
     10800  -4875973.5      40094.588     -4835878.9      2189.631       4905.2541      84815.846    
     10900  -4875797.9      39702.787     -4836095.1      2168.2341      1474.0081      84967.319    
     11000  -4874729.2      39565.003     -4835164.2      2160.7095     -3452.0665      85272.446    
     11100  -4874605.2      40266.142     -4834339.1      2198.9999      392.92596      85146.903    
     11200  -4875342        40758.241     -4834583.8      2225.8742      3997.1216      84955.033    
     11300  -4876024.7      40653.804     -4835370.9      2220.1707     -789.71447      85074.957    
     11400  -4875853.1      40147.768     -4835705.4      2192.5353     -3197.4628      85171.19     
     11500  -4875356        40016.906     -4835339.1      2185.3887      3045.5025      84990.633    
     11600  -4875363        41070.12      -4834292.9      2242.9064      738.07064      85018.431    
     11700  -4874662.8      40629.899     -4834032.9      2218.8652     -1574.4155      85259.199    
     11800  -4875185.2      40941.805     -4834243.4      2235.8989     -2634.4579      85297.464    
     11900  -4875366        40541.394     -4834824.6      2214.0318      619.23639      85073.029    
     12000  -4875435.2      40041.193     -4835394        2186.715       2674.5847      84964.882    
     12100  -4875571        39837.418     -4835733.6      2175.5865     -17.712988      85079.419    
     12200  -4875379.4      39858.034     -4835521.4      2176.7124     -255.43823      85131.701    
     12300  -4874547.3      40444.716     -4834102.6      2208.7521     -85.169642      85114.73     
     12400  -4874860.8      40729.969     -4834130.8      2224.3302      10.923408      85132.946    
     12500  -4875030.9      40145.242     -4834885.7      2192.3973     -2782.5495      85241.005    
     12600  -4875286.3      39878.422     -4835407.9      2177.8259     -1115.9313      85111.17     
     12700  -4875373.5      39857.403     -4835516.1      2176.6779      2513.1032      84931.781    
     12800  -4876400.1      40970.514     -4835429.6      2237.4668     -63.643707      84990.37     
     12900  -4875648.2      40775.675     -4834872.5      2226.8263     -3143.1283      85166.231    
     13000  -4874829.6      40505.639     -4834324        2212.0792     -1430.3499      85191.68     
     13100  -4874830        40427.074     -4834402.9      2207.7887      952.92174      85134.342    
     13200  -4875390.1      40104.355     -4835285.7      2190.1644     -1086.8376      85158.413    
     13300  -4875965.3      40215.948     -4835749.3      2196.2587     -915.46937      85109.25     
     13400  -4875485.4      39871.153     -4835614.3      2177.4289      2709.5877      84891.027    
     13500  -4876110.9      40692.092     -4835418.8      2222.2617      4187.9571      84882.244    
     13600  -4875487.4      40218.034     -4835269.3      2196.3726     -5356.0655      85255.932    
     13700  -4875408        40403.496     -4835004.5      2206.501      -2441.1413      85231.215    
     13800  -4875213.1      40370.603     -4834842.5      2204.7046      3962.699       84954.934    
     13900  -4875376.1      40407.163     -4834969        2206.7012      1065.807       85039.858    
     14000  -4875482        40385.557     -4835096.5      2205.5213     -3798.9306      85256.124    
     14100  -4875455.7      40413.909     -4835041.8      2207.0697     -1233.853       85115.842    
     14200  -4875298.6      40244.062     -4835054.6      2197.7941      5308.5309      84893.847    
     14300  -4876222.2      40760.79      -4835461.4      2226.0134     -707.23537      85052.548    
     14400  -4875976.2      39482.569     -4836493.6      2156.2076     -3019.6979      85180.415    
     14500  -4876393.7      40180.888     -4836212.9      2194.344      -300.62142      84971.43     
     14600  -4875951        40497.531     -4835453.5      2211.6364      5629.2314      84829.594    
     14700  -4875539.4      40249.529     -4835289.8      2198.0926     -142.939        85160.314    
     14800  -4875323.1      40331.406     -4834991.7      2202.5641     -5420.8595      85308.475    
     14900  -4874805.2      40255.776     -4834549.5      2198.4338      3712.1894      84952.641    
     15000  -4875704.3      41492.518     -4834211.8      2265.9743      2687.0127      84947.958    
     15100  -4875357.2      40378.288     -4834978.9      2205.1243     -5291.6198      85270.406    
     15200  -4875760.5      40099.128     -4835661.4      2189.879      -2426.0842      85170.311    
     15300  -4876134.4      40627.479     -4835507        2218.7331      1794.2448      84859.97     
     15400  -4876039.4      40869.162     -4835170.2      2231.9318      1976.8062      84907.917    
     15500  -4875277.7      40983.33      -4834294.4      2238.1667     -2743.595       85233.693    
     15600  -4874370.6      40589.363     -4833781.3      2216.6515     -2802.7205      85306.204    
     15700  -4874608.6      40185.12      -4834423.5      2194.5751      3209.3194      85053.049    
     15800  -4876147.3      41003.963     -4835143.3      2239.2935      1857.8094      85017.915    
     15900  -4875381.8      39979.092     -4835402.8      2183.3236     -1642.0077      85132.197    
     16000  -4875815.5      40589.432     -4835226.1      2216.6553     -1275.7632      85123.948    
     16100  -4875006        40239.296     -4834766.7      2197.5338      1487.6971      85087.12     
     16200  -4874115.9      40043.887     -4834072        2186.8622      2067.2051      85173.033    
     16300  -4875000        41270.346     -4833729.7      2253.8411     -1895.9635      85250.2      
     16400  -4875327.4      40509.291     -4834818.1      2212.2787     -745.72333      85144.344    
     16500  -4875896.7      40387.317     -4835509.4      2205.6174      1455.5694      84963.09     
     16600  -4875795.1      40299.315     -4835495.8      2200.8115      1544.7908      85031.812    
     16700  -4875240.4      40281.01      -4834959.4      2199.8118     -1670.7304      85227.634    
     16800  -4874743.7      40553.877     -4834189.8      2214.7136     -2252.2102      85231.309    
     16900  -4875185.8      41053.536     -4834132.2      2242.0007      1665.2969      85079.828    
     17000  -4875657.4      40642.195     -4835015.2      2219.5367     -566.1546       85119.136    
     17100  -4875628.6      40225.863     -4835402.8      2196.8002     -2375.6477      85150.161    
     17200  -4875251.4      39950.155     -4835301.2      2181.7433      2823.1276      85021.79     
     17300  -4875576.1      40682.312     -4834893.8      2221.7276      1028.8906      85058.783    
     17400  -4875118.2      40354.072     -4834764.2      2203.8019     -2010.5559      85166.261    
     17500  -4875132.1      40342.701     -4834789.4      2203.1809     -1031.3729      85121.457    
     17600  -4875395.5      40007.079     -4835388.4      2184.852       2056.334       85018.487    
     17700  -4875884.8      39865.404     -4836019.4      2177.1149     -690.09211      85072.377    
     17800  -4875826.3      39952.762     -4835873.6      2181.8856      137.31397      85077.632    
     17900  -4874875.9      40214.091     -4834661.8      2196.1573      2031.2323      85056.43     
     18000  -4875137.8      40681.383     -4834456.4      2221.6769     -1361.8988      85164.274    
     18100  -4875003.9      40254.33      -4834749.5      2198.3548     -3772.5398      85227.39     
     18200  -4875516.8      40086.834     -4835429.9      2189.2076     -716.89         85089.516    
     18300  -4876262.1      40274.341     -4835987.7      2199.4477      1512.8517      84985.627    
     18400  -4875820.1      39886.269     -4835933.8      2178.2544     -513.21311      85027.092    
     18500  -4874940        40334.139     -4834605.9      2202.7133      1768.5253      85056.64     
     18600  -4874802.1      40353.34      -4834448.8      2203.7619     -1107.7759      85121.364    
     18700  -4874800.9      39970.425     -4834830.5      2182.8503      437.83154      85128.04     
     18800  -4875911.3      40379.057     -4835532.2      2205.1663     -2478.4438      85075.909    
     18900  -4876314.1      40387.177     -4835926.9      2205.6098      1801.6569      84934.205    
     19000  -4876119.3      40298.463     -4835820.8      2200.765       1458.205       84985.721    
     19100  -4874844.4      40323.645     -4834520.7      2202.1402     -407.35433      85158.913    
     19200  -4875280.1      41122.239     -4834157.9      2245.7527     -3319.9869      85234.52     
     19300  -4874868.1      40147.346     -4834720.8      2192.5122      2969.1533      85074.138    
     19400  -4875563        40203.421     -4835359.5      2195.5746      79.100793      85057.155    
     19500  -4875785.5      40156.728     -4835628.7      2193.0246     -2309.9693      85094.702    
     19600  -4875809.4      40317.895     -4835491.5      2201.8262      452.81997      85023.125    
     19700  -4875121.7      41017.929     -4834103.8      2240.0562      2591.5418      85078.194    
     19800  -4874725        40656.256     -4834068.8      2220.3046     -3671.4419      85316.481    
     19900  -4875074.1      40309.212     -4834764.9      2201.352      -1713.7125      85183.037    
     20000  -4875959        40592.973     -4835366        2216.8486      4123.2588      84882.9      
Loop time of 390.183 on 8 procs for 10000 steps with 6144 atoms

Performance: 2.214 ns/day, 10.838 hours/ns, 25.629 timesteps/s, 157.465 katom-step/s
88.8% CPU use with 8 MPI tasks x 1 OpenMP threads

MPI task timing breakdown:
Section |  min time  |  avg time  |  max time  |%varavg| %total
---------------------------------------------------------------
Pair    | 41.036     | 43.093     | 45.054     |  19.2 | 11.04
Kspace  | 308.33     | 309.93     | 314.86     |  11.0 | 79.43
Neigh   | 1.9649     | 2.0167     | 2.0937     |   3.2 |  0.52
Comm    | 28.172     | 31.022     | 33.124     |  26.1 |  7.95
Output  | 0.22189    | 0.22211    | 0.223      |   0.1 |  0.06
Modify  | 2.9789     | 3.0126     | 3.0358     |   0.9 |  0.77
Other   |            | 0.8826     |            |       |  0.23

Nlocal:            768 ave         777 max         750 min
Histogram: 1 0 0 1 0 1 0 1 2 2
Nghost:         5888.5 ave        5909 max        5869 min
Histogram: 2 0 0 1 0 0 4 0 0 1
Neighs:         200250 ave      210774 max      191037 min
Histogram: 1 2 0 1 0 1 1 0 1 1

Total # of neighbors = 1602001
Ave neighs/atom = 260.74235
Neighbor list builds = 386
Dangerous builds = 0

# Unfix the previous fix to prepare for the next loop iteration
unfix 1

# Dump settings will be cleared with the unfix command, so we remove it
undump 1

# Next iteration
next temp
jump SELF loop_temperature

# Set velocities for initial temperature of ${temp} K
velocity all create ${temp} 87287 loop geom
velocity all create 2400 87287 loop geom

# Apply NPT ensemble with P = 1 atm, T = ${temp} K, timestep = 1.0 fs, temperature damping = 100 fs (100x timestep), pressure damping = 1000 fs (1000x timestep)
fix 1 all npt temp ${temp} ${temp} 100.0 aniso 1.0 1.0 1000.0
fix 1 all npt temp 2400 ${temp} 100.0 aniso 1.0 1.0 1000.0
fix 1 all npt temp 2400 2400 100.0 aniso 1.0 1.0 1000.0
thermo 100
thermo_style custom step pe ke etotal temp press vol

# Output dump
dump 1 all custom 100 dump_${temp}K.lammpstrj id element x y z vx vy vz
dump 1 all custom 100 dump_2400K.lammpstrj id element x y z vx vy vz
dump_modify 1 element Ce O

# Run the simulation for 10000 steps
run 10000
Ewald initialization ...
  using 12-bit tables for long-range coulomb (src/kspace.cpp:342)
  G vector (1/distance) = 0.30852452
  estimated absolute RMS force accuracy = 0.035272479
  estimated relative force accuracy = 0.00010622202
  KSpace vectors: actual max1d max3d = 5784 14 12194
                  kxmax kymax kzmax  = 14 14 14
Generated 0 of 1 mixed pair_coeff terms from geometric mixing rule
Per MPI rank memory allocation (min/avg/max) = 29.01 | 29.01 | 29.01 Mbytes
   Step         PotEng         KinEng         TotEng          Temp          Press          Volume    
     20000  -4875959        43946.679     -4832012.4      2400           5928.9651      84882.9      
     20100  -4873071.4      42282.82      -4830788.5      2309.134       37.020573      85248.576    
     20200  -4872056.7      42758.606     -4829298.1      2335.1174     -6411.6088      85665.03     
     20300  -4871776.6      44018.293     -4827758.3      2403.911      -436.2916       85496.193    
     20400  -4871135.7      44393.565     -4826742.1      2424.4052      4158.7989      85286.124    
     20500  -4870636.8      43954.975     -4826681.9      2400.4531      2502.6808      85514.452    
     20600  -4870513.7      43427.3       -4827086.4      2371.6359     -5060.2314      85822.532    
     20700  -4870993.3      43699.21      -4827294.1      2386.4853     -1445.3133      85621.355    
     20800  -4871924.9      44604.187     -4827320.7      2435.9076      2569.3113      85336.646    
     20900  -4871711.8      43940.615     -4827771.2      2399.6689      1567.1793      85463.259    
     21000  -4871112.3      42869.195     -4828243.1      2341.1569     -3727.6007      85671.812    
     21100  -4871489.8      43999.526     -4827490.3      2402.8861     -626.25861      85542.926    
     21200  -4870824.1      44079.645     -4826744.5      2407.2615      3456.4187      85426.514    
     21300  -4871038.7      44238.867     -4826799.8      2415.9569     -910.05038      85603.319    
     21400  -4870838.6      43596.595     -4827242        2380.8814     -2418.526       85709.6      
     21500  -4871269.4      43180.874     -4828088.6      2358.1781     -809.80507      85551.94     
     21600  -4872426.6      43686.962     -4828739.7      2385.8165      2166.124       85360.914    
     21700  -4872225.3      43760.996     -4828464.3      2389.8596     -44.101437      85374.679    
     21800  -4871065        43903.972     -4827161        2397.6677     -231.31364      85553.3      
     21900  -4870148.7      43416.69      -4826732        2371.0564     -553.13031      85738.348    
     22000  -4870791.8      44342.183     -4826449.7      2421.5991     -3214.1116      85703.24     
     22100  -4870451.5      43664.559     -4826787        2384.593       3441.7285      85510.81     
     22200  -4871447.6      43588.007     -4827859.6      2380.4123     -145.65934      85458.891    
     22300  -4871631.1      43497.425     -4828133.6      2375.4655     -855.19639      85473.736    
     22400  -4871582.5      43846.05      -4827736.5      2394.5045     -24.567276      85504.525    
     22500  -4871170.4      44052.545     -4827117.9      2405.7815     -737.88254      85584.607    
     22600  -4871368.9      44529.513     -4826839.4      2431.8295     -3022.758       85661.163    
     22700  -4870718.2      43793.308     -4826924.9      2391.6242      1406.3323      85489.493    
     22800  -4871544.6      44190.342     -4827354.3      2413.3068      1212.7844      85369.871    
     22900  -4871971.5      43876.141     -4828095.4      2396.1478     -995.42958      85517.606    
     23000  -4871765.2      43398.088     -4828367.1      2370.0405     -2010.1055      85640.321    
     23100  -4871374.3      44468.265     -4826906        2428.4847      1760.9154      85548.889    
     23200  -4871369.8      44983.448     -4826386.4      2456.6197      706.28079      85498.425    
     23300  -4870520.5      43585.455     -4826935.1      2380.273       628.79534      85560.57     
     23400  -4872072.5      44585.321     -4827487.2      2434.8773     -4510.2095      85700.771    
     23500  -4871109.1      43318.937     -4827790.2      2365.718      -786.98812      85574.28     
     23600  -4871603.2      44494.953     -4827108.2      2429.9421      898.71271      85395.379    
     23700  -4870822        44549.49      -4826272.5      2432.9205      2714.1459      85418.621    
     23800  -4871094.9      44540.82      -4826554.1      2432.447      -1696.4664      85664.969    
     23900  -4870517.8      43208.721     -4827309.1      2359.6989     -3686.7636      85771.949    
     24000  -4871166.4      43742.394     -4827424        2388.8437      357.4873       85539.049    
     24100  -4871307.1      44400.868     -4826906.2      2424.804       4207.6416      85310.294    
     24200  -4870577.8      44401.941     -4826175.9      2424.8626      2340.4374      85517.404    
     24300  -4871201.1      44914.177     -4826286.9      2452.8367     -5707.9851      85822.163    
     24400  -4871618.1      44569.511     -4827048.6      2434.0139     -4473.0476      85664.007    
     24500  -4872044.6      44301.892     -4827742.7      2419.3988      4249.913       85333.189    
     24600  -4871502.4      43522.038     -4827980.3      2376.8097      3017.2145      85384.618    
     24700  -4871503.3      44099.192     -4827404.1      2408.329      -3580.2158      85662.791    
     24800  -4870795.3      44796.058     -4825999.3      2446.386      -1378.4436      85703.065    
     24900  -4870834.1      44555.747     -4826278.3      2433.2622      830.10951      85585.231    
     25000  -4871142.9      43960.791     -4827182.1      2400.7707      183.71214      85508.838    
     25100  -4871824.5      44149.558     -4827675        2411.0796     -2768.7918      85550.182    
     25200  -4870973.1      43365.266     -4827607.9      2368.2481     -1552.6583      85545.995    
     25300  -4870648.2      43966.064     -4826682.1      2401.0587      2283.9228      85499.58     
     25400  -4870690.3      44725.932     -4825964.4      2442.5563     -388.28807      85640.344    
     25500  -4870916.4      44683.604     -4826232.8      2440.2447     -5965.0921      85815.541    
     25600  -4870943.9      44172.872     -4826771        2412.3528     -180.82043      85587.539    
     25700  -4871829.4      44868.592     -4826960.8      2450.3472      3066.3757      85322.007    
     25800  -4871466.4      43876.798     -4827589.6      2396.1837      1033.9383      85445.951    
     25900  -4871335.1      43502.196     -4827833        2375.7261     -3525.9285      85621.904    
     26000  -4871161.6      43870.626     -4827291        2395.8467      2914.2735      85498.697    
     26100  -4870228.6      43996.191     -4826232.4      2402.704       1391.276       85531.425    
     26200  -4870991.8      44627.359     -4826364.5      2437.1731     -1771.0814      85661.636    
     26300  -4871262.6      44400.917     -4826861.6      2424.8067     -999.22304      85625        
     26400  -4871123.4      43899.44      -4827223.9      2397.4202      85.007444      85513.824    
     26500  -4871005.4      43646.667     -4827358.7      2383.6158      2221.1042      85468.551    
     26600  -4871431.8      44164.849     -4827266.9      2411.9147     -955.17558      85593.927    
     26700  -4870356.2      43111.755     -4827244.4      2354.4035     -419.28633      85620.209    
     26800  -4870927.1      43890.492     -4827036.7      2396.9316      1718.0625      85481.592    
     26900  -4871004.7      44053.106     -4826951.6      2405.8122      1655.7133      85435.588    
     27000  -4871683.6      44167.931     -4827515.6      2412.0829     -897.00551      85616.289    
     27100  -4871246.1      43238.787     -4828007.3      2361.3409     -2940.0212      85658.001    
     27200  -4871455.5      43825.062     -4827630.4      2393.3583      2216.1689      85384.442    
     27300  -4871016.5      44144.673     -4826871.8      2410.8128      4428.7429      85374.368    
     27400  -4870564.4      44051.976     -4826512.5      2405.7505     -660.72317      85725.064    
     27500  -4870143.2      44507.303     -4825635.9      2430.6166     -3635.625       85823.632    
     27600  -4870247        45260.597     -4824986.4      2471.7552      2684.5199      85600.774    
     27700  -4870520        44347.072     -4826172.9      2421.8661      127.38239      85531.222    
     27800  -4871047.8      44213.856     -4826834        2414.591       847.5744       85496.646    
     27900  -4871547.8      44045.753     -4827502.1      2405.4106     -452.16165      85515.078    
     28000  -4871450.9      43547.112     -4827903.8      2378.179      -3084.5449      85537.072    
     28100  -4871491.8      43858.203     -4827633.6      2395.1682      1425.2577      85413.764    
     28200  -4870698.4      44076.445     -4826621.9      2407.0867      2190.9589      85453.723    
     28300  -4870249.3      43707.403     -4826541.9      2386.9328     -1357.0205      85689.388    
     28400  -4870526.3      43848.45      -4826677.9      2394.6356     -3596.1906      85724.22     
     28500  -4871298.4      43743.53      -4827554.9      2388.9057      957.42792      85415.004    
     28600  -4871871.4      43116.319     -4828755        2354.6527      4178.4797      85261.925    
     28700  -4872076.6      43775.948     -4828300.7      2390.6761     -1934.2317      85496.512    
     28800  -4871602.5      44349.019     -4827253.5      2421.9725     -3514.8066      85619.448    
     28900  -4870603.2      43904.421     -4826698.8      2397.6922      1754.634       85479.959    
     29000  -4870554.7      43680.272     -4826874.5      2385.4511      2678.8971      85419.721    
     29100  -4871651.5      43928.848     -4827722.7      2399.0262      375.80121      85546.421    
     29200  -4871636.5      43573.795     -4828062.7      2379.6362     -4320.2333      85640.081    
     29300  -4871342.5      43947.005     -4827395.5      2400.0178      2411.2985      85458.526    
     29400  -4870648.5      44669.113     -4825979.4      2439.4533      3735.1161      85488.482    
     29500  -4870743.2      44553.52      -4826189.6      2433.1406     -4675.8891      85789.851    
     29600  -4871021.8      44090.689     -4826931.1      2407.8646     -465.49344      85666.276    
     29700  -4871384.4      43819.515     -4827564.9      2393.0554      4126.9123      85338.37     
     29800  -4872390.5      44322.829     -4828067.7      2420.5422      2699.3031      85349.49     
     29900  -4871277.3      43260.676     -4828016.6      2362.5363     -2107.4755      85664.853    
     30000  -4870451.6      43968.873     -4826482.7      2401.2121     -3297.1914      85774.071    
Loop time of 351.345 on 8 procs for 10000 steps with 6144 atoms

Performance: 2.459 ns/day, 9.760 hours/ns, 28.462 timesteps/s, 174.871 katom-step/s
98.9% CPU use with 8 MPI tasks x 1 OpenMP threads

MPI task timing breakdown:
Section |  min time  |  avg time  |  max time  |%varavg| %total
---------------------------------------------------------------
Pair    | 40.741     | 42.753     | 44.532     |  19.7 | 12.17
Kspace  | 269.39     | 271.93     | 277.4      |  13.3 | 77.40
Neigh   | 2.068      | 2.1406     | 2.2364     |   3.2 |  0.61
Comm    | 28.207     | 31.587     | 33.111     |  28.1 |  8.99
Output  | 0.22535    | 0.2273     | 0.22921    |   0.3 |  0.06
Modify  | 1.9233     | 1.9303     | 1.9365     |   0.3 |  0.55
Other   |            | 0.7808     |            |       |  0.22

Nlocal:            768 ave         777 max         757 min
Histogram: 1 0 0 1 1 0 3 1 0 1
Nghost:        5861.75 ave        5872 max        5853 min
Histogram: 2 0 1 0 2 1 0 0 0 2
Neighs:         197972 ave      205157 max      187835 min
Histogram: 1 0 0 2 0 1 0 2 0 2

Total # of neighbors = 1583776
Ave neighs/atom = 257.77604
Neighbor list builds = 412
Dangerous builds = 0

# Unfix the previous fix to prepare for the next loop iteration
unfix 1

# Dump settings will be cleared with the unfix command, so we remove it
undump 1

# Next iteration
next temp
jump SELF loop_temperature

# Set velocities for initial temperature of ${temp} K
velocity all create ${temp} 87287 loop geom
velocity all create 2600 87287 loop geom

# Apply NPT ensemble with P = 1 atm, T = ${temp} K, timestep = 1.0 fs, temperature damping = 100 fs (100x timestep), pressure damping = 1000 fs (1000x timestep)
fix 1 all npt temp ${temp} ${temp} 100.0 aniso 1.0 1.0 1000.0
fix 1 all npt temp 2600 ${temp} 100.0 aniso 1.0 1.0 1000.0
fix 1 all npt temp 2600 2600 100.0 aniso 1.0 1.0 1000.0
thermo 100
thermo_style custom step pe ke etotal temp press vol

# Output dump
dump 1 all custom 100 dump_${temp}K.lammpstrj id element x y z vx vy vz
dump 1 all custom 100 dump_2600K.lammpstrj id element x y z vx vy vz
dump_modify 1 element Ce O

# Run the simulation for 10000 steps
run 10000
Ewald initialization ...
  using 12-bit tables for long-range coulomb (src/kspace.cpp:342)
  G vector (1/distance) = 0.30843988
  estimated absolute RMS force accuracy = 0.035539444
  estimated relative force accuracy = 0.00010702598
  KSpace vectors: actual max1d max3d = 5756 14 12194
                  kxmax kymax kzmax  = 14 14 14
Generated 0 of 1 mixed pair_coeff terms from geometric mixing rule
Per MPI rank memory allocation (min/avg/max) = 29.01 | 29.01 | 29.01 Mbytes
   Step         PotEng         KinEng         TotEng          Temp          Press          Volume    
     30000  -4870451.8      47608.902     -4822842.9      2600          -1358.8354      85774.071    
     30100  -4868141.2      46456.736     -4821684.5      2537.0784      1647.4506      85780.638    
     30200  -4867287.8      46728.538     -4820559.3      2551.9219     -528.87608      85943.107    
     30300  -4866744.6      47414.616     -4819330        2589.3897     -710.03028      86089.972    
     30400  -4866432.3      48002.568     -4818429.8      2621.4988     -1178.2243      86131.597    
     30500  -4864881.6      46715.612     -4818166        2551.216       1790.1373      86119.89     
     30600  -4866521.7      48000.718     -4818521        2621.3977      923.26611      86028.35     
     30700  -4867166.2      47580.511     -4819585.7      2598.4495     -651.7713       85922.762    
     30800  -4867444.9      47461.279     -4819983.6      2591.9381      674.40536      85883.75     
     30900  -4866764.6      47047.863     -4819716.7      2569.3607      2028.789       85964.728    
     31000  -4866325        47400.462     -4818924.5      2588.6167     -3097.6049      86151.075    
     31100  -4865837.1      47445.432     -4818391.6      2591.0727     -732.72858      86124.595    
     31200  -4866908.7      48428.709     -4818479.9      2644.771       2057.2082      85967.868    
     31300  -4867029.1      47908.765     -4819120.3      2616.376       885.76434      85969.986    
     31400  -4867046.3      47207.491     -4819838.8      2578.0783     -2807.7403      86032.434    
     31500  -4867673.4      47769.056     -4819904.3      2608.7463     -2472.9247      85927.879    
     31600  -4866277.9      47394.061     -4818883.8      2588.2672      5854.3616      85788.561    
     31700  -4865357.2      47198.349     -4818158.8      2577.5791      2780.8753      86021.946    
     31800  -4866436.7      48173.635     -4818263.1      2630.841      -8536.0245      86404.085    
     31900  -4866712        48186.591     -4818525.4      2631.5485     -1936.6802      86200.153    
     32000  -4866787.1      47870.747     -4818916.3      2614.2998      5081.8239      85812.786    
     32100  -4867002.6      47362.795     -4819639.8      2586.5597      2717.07        85819.719    
     32200  -4867527.9      47519.923     -4820008        2595.1407     -3426.6194      86060.773    
     32300  -4866393.6      46724.535     -4819669.1      2551.7033     -1551.7478      86098.39     
     32400  -4866535.9      47596.021     -4818939.9      2599.2966      581.19471      85983.91     
     32500  -4865936.3      47327.617     -4818608.7      2584.6385      3145.7879      85993.228    
     32600  -4866428.6      47985.615     -4818443        2620.5729     -2772.7905      86152.468    
     32700  -4866366.7      47411.191     -4818955.5      2589.2027     -1392.534       86107.512    
     32800  -4867678.7      47726.857     -4819951.8      2606.4417      121.86803      85915.914    
     32900  -4866647.6      46312.207     -4820335.4      2529.1854      4750.1482      85792.626    
     33000  -4866784.1      47000.673     -4819783.4      2566.7836      407.00101      85962.854    
     33100  -4865696.4      47234.357     -4818462.1      2579.5455     -69.576472      86156.433    
     33200  -4866560.7      48236.098     -4818324.6      2634.2522     -2067.607       86187.724    
     33300  -4866502.1      47631.679     -4818870.4      2601.2439      1126.7461      86017.06     
     33400  -4867138.7      47550.636     -4819588        2596.818       1289.7868      85895.286    
     33500  -4866632.8      46484.193     -4820148.6      2538.5778      793.2325       85892.896    
     33600  -4867594.8      47587.169     -4820007.6      2598.8131     -3336.5041      86005.078    
     33700  -4866091.2      47512.558     -4818578.6      2594.7385      901.18411      86016.555    
     33800  -4865865.7      47670.423     -4818195.3      2603.3598      1006.4258      86023.052    
     33900  -4866710.1      47871.677     -4818838.5      2614.3506      194.33435      86054.089    
     34000  -4867150.2      47494.872     -4819655.4      2593.7726     -1781.1144      86004.909    
     34100  -4867376.1      47591.835     -4819784.3      2599.0679     -1021.1193      85892.313    
     34200  -4867536.4      48023.175     -4819513.2      2622.6241      2921.5886      85877.1      
     34300  -4865676.7      47528.236     -4818148.4      2595.5947     -1292.4638      86083.625    
     34400  -4866344.1      48824.509     -4817519.6      2666.3863     -3153.7071      86163.17     
     34500  -4866543.4      48074.469     -4818468.9      2625.4254      1798.9647      86005.547    
     34600  -4867079.1      47944.981     -4819134.1      2618.3538      630.04071      85969.549    
     34700  -4866917.7      47363.277     -4819554.4      2586.586      -3464.1829      86025.712    
     34800  -4867285.6      47723.418     -4819562.1      2606.2539      1781.217       85947.071    
     34900  -4866408.2      47694.594     -4818713.6      2604.6798      3717.1767      85959.262    
     35000  -4866452.3      48661.805     -4817790.5      2657.5008     -1304.2258      86124.107    
     35100  -4866065.7      47810.923     -4818254.8      2611.0327     -2411.1842      86172.611    
     35200  -4866940.4      47918.275     -4819022.1      2616.8954      1157.9553      86000.875    
     35300  -4867016.1      47660.476     -4819355.7      2602.8165      5255.3979      85877.075    
     35400  -4866622.8      47208.961     -4819413.8      2578.1586     -1017.3534      86068.06     
     35500  -4867470        48176.498     -4819293.5      2630.9974     -4800.2674      86238.889    
     35600  -4865520.8      47397.846     -4818123        2588.4739     -101.93624      86140.264    
     35700  -4865155.9      47513.112     -4817642.8      2594.7687      2929.9224      86039.106    
     35800  -4866378.8      48128.574     -4818250.3      2628.3801     -1604.0695      86145.83     
     35900  -4866389.1      47551.849     -4818837.2      2596.8842     -3793.1436      86154.852    
     36000  -4866679.3      47424.636     -4819254.7      2589.9369      2525.5097      85948.548    
     36100  -4867154.9      47469.843     -4819685        2592.4057      3582.6087      85829.485    
     36200  -4867666.9      47821.722     -4819845.2      2611.6225     -1389.0394      85952.346    
     36300  -4866642.6      46987.127     -4819655.5      2566.0439      776.86545      86061.876    
     36400  -4866503.8      47819.899     -4818683.9      2611.5229     -729.63592      86063.754    
     36500  -4865794        47349.172     -4818444.9      2585.8157      1928.6122      86001.829    
     36600  -4867124.6      48448.458     -4818676.1      2645.8495     -2095.3869      86115.894    
     36700  -4866540.9      46971.045     -4819569.8      2565.1656     -2355.0617      86091.723    
     36800  -4867871.7      47747.53      -4820124.1      2607.5707      1587.8737      85813.225    
     36900  -4867917.3      47466.272     -4820451        2592.2107      3316.1895      85730.492    
     37000  -4866987.9      46962.486     -4820025.4      2564.6982     -161.25696      86071.16     
     37100  -4866192.5      47429.133     -4818763.4      2590.1825     -4557.4631      86327.587    
     37200  -4866359        48286.789     -4818072.2      2637.0205      1482.157       86120.021    
     37300  -4866152.1      47786.115     -4818366        2609.6779      4320.0647      86018.853    
     37400  -4866751.5      47370.448     -4819381        2586.9776     -3884.8182      86201.059    
     37500  -4866969.6      47306.673     -4819663        2583.4948     -2989.813       86105.685    
     37600  -4866702        47301.109     -4819400.9      2583.1909      2922.1604      85791.942    
     37700  -4867339.4      47996.3       -4819343.1      2621.1564      4112.554       85793.923    
     37800  -4866356.1      47002.349     -4819353.7      2566.8752     -1953.2264      86159.433    
     37900  -4866661.1      47556.322     -4819104.8      2597.1285     -5592.8171      86271.863    
     38000  -4866742.2      47833.125     -4818909        2612.2452      501.96356      85990.412    
     38100  -4866396.7      47271.051     -4819125.7      2581.5494      4314.9144      85812.643    
     38200  -4867502.8      47664.269     -4819838.5      2603.0237     -1537.1856      86015.146    
     38300  -4867838.3      46999.927     -4820838.4      2566.7429     -3523.4706      86079.815    
     38400  -4867616.3      47130.731     -4820485.6      2573.8863      807.43137      85856.301    
     38500  -4867167.8      48166.459     -4819001.3      2630.4491      4618.2577      85785.976    
     38600  -4866699.1      47873.342     -4818825.7      2614.4415     -3676.4294      86131.426    
     38700  -4866474.7      47612.863     -4818861.9      2600.2163     -5510.4562      86289.732    
     38800  -4866383.8      47779.98      -4818603.8      2609.3429      119.24028      86011.844    
     38900  -4867057.7      48381.687     -4818676        2642.203       1326.0293      85811.369    
     39000  -4866929.9      47143.384     -4819786.5      2574.5773     -1800.0778      86016.078    
     39100  -4867237.8      47228.419     -4820009.4      2579.2212     -7192.0204      86125.546    
     39200  -4866568        47180.143     -4819387.9      2576.5848      6042.5379      85815.022    
     39300  -4866163.2      47623.171     -4818540        2600.7793      4672.3114      85879.16     
     39400  -4866046.1      47491.434     -4818554.6      2593.5849     -4217.3005      86259.621    
     39500  -4865681.3      47045.317     -4818636        2569.2217     -3848.9481      86265.701    
     39600  -4866605.1      47758.38      -4818846.7      2608.1633      4975.5431      85880.911    
     39700  -4866710        47260.2       -4819449.8      2580.9568      5114.8766      85785.439    
     39800  -4867408.2      47009.037     -4820399.1      2567.2404     -4349.9918      86062.67     
     39900  -4867310.8      47154.194     -4820156.6      2575.1677     -1357.6985      86159.623    
     40000  -4866816.7      47390.802     -4819425.9      2588.0892     -14.446065      85998.233    
Loop time of 656.582 on 8 procs for 10000 steps with 6144 atoms

Performance: 1.316 ns/day, 18.238 hours/ns, 15.230 timesteps/s, 93.576 katom-step/s
52.2% CPU use with 8 MPI tasks x 1 OpenMP threads

MPI task timing breakdown:
Section |  min time  |  avg time  |  max time  |%varavg| %total
---------------------------------------------------------------
Pair    | 41.17      | 42.887     | 44.329     |  18.1 |  6.53
Kspace  | 270.07     | 348.3      | 577.29     | 707.2 | 53.05
Neigh   | 2.1662     | 2.3105     | 2.3683     |   3.9 |  0.35
Comm    | 29.097     | 258.4      | 336.54     | 820.8 | 39.36
Output  | 0.23951    | 0.24021    | 0.24075    |   0.1 |  0.04
Modify  | 3.41       | 3.4519     | 3.502      |   1.8 |  0.53
Other   |            | 0.9887     |            |       |  0.15

Nlocal:            768 ave         778 max         762 min
Histogram: 2 1 2 0 0 1 1 0 0 1
Nghost:        5875.75 ave        5885 max        5867 min
Histogram: 1 0 1 2 0 1 0 2 0 1
Neighs:         197434 ave      207577 max      189903 min
Histogram: 1 3 0 0 0 1 2 0 0 1

Total # of neighbors = 1579474
Ave neighs/atom = 257.07585
Neighbor list builds = 437
Dangerous builds = 0

# Unfix the previous fix to prepare for the next loop iteration
unfix 1

# Dump settings will be cleared with the unfix command, so we remove it
undump 1

# Next iteration
next temp
jump SELF loop_temperature

# Set velocities for initial temperature of ${temp} K
velocity all create ${temp} 87287 loop geom
velocity all create 2800 87287 loop geom

# Apply NPT ensemble with P = 1 atm, T = ${temp} K, timestep = 1.0 fs, temperature damping = 100 fs (100x timestep), pressure damping = 1000 fs (1000x timestep)
fix 1 all npt temp ${temp} ${temp} 100.0 aniso 1.0 1.0 1000.0
fix 1 all npt temp 2800 ${temp} 100.0 aniso 1.0 1.0 1000.0
fix 1 all npt temp 2800 2800 100.0 aniso 1.0 1.0 1000.0
thermo 100
thermo_style custom step pe ke etotal temp press vol

# Output dump
dump 1 all custom 100 dump_${temp}K.lammpstrj id element x y z vx vy vz
dump 1 all custom 100 dump_2800K.lammpstrj id element x y z vx vy vz
dump_modify 1 element Ce O

# Run the simulation for 10000 steps
run 10000
Ewald initialization ...
  using 12-bit tables for long-range coulomb (src/kspace.cpp:342)
  G vector (1/distance) = 0.30841873
  estimated absolute RMS force accuracy = 0.035612782
  estimated relative force accuracy = 0.00010724683
  KSpace vectors: actual max1d max3d = 5764 14 12194
                  kxmax kymax kzmax  = 14 14 14
Generated 0 of 1 mixed pair_coeff terms from geometric mixing rule
Per MPI rank memory allocation (min/avg/max) = 29.01 | 29.01 | 29.01 Mbytes
   Step         PotEng         KinEng         TotEng          Temp          Press          Volume    
     40000  -4866816.8      51271.125     -4815545.6      2800           2047.7876      85998.233    
     40100  -4864714.5      50492.619     -4814221.9      2757.4845      1834.2421      86198.317    
     40200  -4862820.2      49949.069     -4812871.1      2727.8004     -642.68124      86508.183    
     40300  -4862681        51296.663     -4811384.4      2801.3946     -3730.706       86547.366    
     40400  -4862003.2      51439.622     -4810563.6      2809.2019      3176.3317      86335.59     
     40500  -4862612.4      52191.63      -4810420.8      2850.2703      5245.5461      86283.389    
     40600  -4862882.2      51470.944     -4811411.3      2810.9124     -1752.301       86526.863    
     40700  -4862651.8      50877.569     -4811774.2      2778.5073     -4464.2312      86687.574    
     40800  -4861730.7      50739.272     -4810991.4      2770.9546      492.57323      86447.485    
     40900  -4862189.8      51888.186     -4810301.6      2833.6987      6376.2032      86244.598    
     41000  -4862020.2      51250.686     -4810769.5      2798.8838     -2636.8441      86535.941    
     41100  -4863407.4      50893.347     -4812514        2779.3689     -9996.8531      86719.394    
     41200  -4863484        51071.273     -4812412.8      2789.0858      2044.9982      86282.01     
     41300  -4862942        51240.888     -4811701.1      2798.3487      9284.5265      85990.327    
     41400  -4862876.5      51671.188     -4811205.3      2821.8481     -1902.1656      86413.903    
     41500  -4861254.3      50703.048     -4810551.2      2768.9764     -8266.1959      86829.983    
     41600  -4861593.6      52253.74      -4809339.9      2853.6622     -2807.8476      86662.333    
     41700  -4861786.4      52136.983     -4809649.4      2847.2859      2430.7931      86329.741    
     41800  -4861992.7      51373.742     -4810618.9      2805.6041      3873.8887      86292.877    
     41900  -4862545.4      51247.607     -4811297.8      2798.7156     -578.94884      86560.47     
     42000  -4862407.1      51015.787     -4811391.3      2786.0556     -4473.4855      86725.923    
     42100  -4862011.1      51298.292     -4810712.8      2801.4836      490.61969      86502.341    
     42200  -4862209.2      52539.081     -4809670.1      2869.2452      2692.9154      86335.841    
     42300  -4862592.4      52350.976     -4810241.5      2858.9724      557.24488      86462.089    
     42400  -4861924.5      50775.774     -4811148.7      2772.9481     -2164.4797      86686.906    
     42500  -4862177.4      50978.812     -4811198.6      2784.0363     -2181.8155      86563.189    
     42600  -4862648.1      51720.354     -4810927.7      2824.5331      3267.228       86318.619    
     42700  -4862027.3      50898.227     -4811129.1      2779.6354      2281.7253      86382.773    
     42800  -4862311.5      50475.87      -4811835.6      2756.5698     -1759.447       86589.219    
     42900  -4862694.5      50522.995     -4812171.5      2759.1434     -2620.0221      86591.786    
     43000  -4861858.9      50802.59      -4811056.3      2774.4125      2091.1841      86399.165    
     43100  -4862421.7      52035.984     -4810385.7      2841.7702      2992.663       86332.63     
     43200  -4862527.3      51687.149     -4810840.2      2822.7197      2099.6905      86462.488    
     43300  -4862241.9      50789.84      -4811452        2773.7162     -2070.5111      86613.529    
     43400  -4862759.8      51230.083     -4811529.7      2797.7586     -932.10279      86553.357    
     43500  -4861922.7      51650.882     -4810271.8      2820.7392      1839.9449      86411.546    
     43600  -4861628.7      51980.76      -4809647.9      2838.7543      1980.8367      86430.945    
     43700  -4862492.3      52015.496     -4810476.8      2840.6513     -4011.7877      86670.641    
     43800  -4862071.5      50797.725     -4811273.8      2774.1468     -1224.6531      86671.27     
     43900  -4861927.4      50771.422     -4811155.9      2772.7104      857.08368      86451.433    
     44000  -4862025        51000.046     -4811024.9      2785.1959      7606.0581      86268.737    
     44100  -4862849        51194.615     -4811654.4      2795.8217      2579.564       86408.26     
     44200  -4862971        50701.309     -4812269.7      2768.8814     -8089.4257      86728.11     
     44300  -4862143.6      50663.373     -4811480.2      2766.8097     -791.78116      86548.396    
     44400  -4862550.1      52060.571     -4810489.6      2843.1129      6271.2891      86183.185    
     44500  -4862190.6      51235.712     -4810954.9      2798.066       4388.8425      86317.96     
     44600  -4861805.8      50433.134     -4811372.7      2754.2359     -5923.6165      86768.603    
     44700  -4861902.2      50873.565     -4811028.7      2778.2886     -3040.8919      86718.724    
     44800  -4861288.1      51625.374     -4809662.7      2819.3461      3146.7838      86323.567    
     44900  -4861591.6      52232.715     -4809358.9      2852.514       4239.5758      86229.96     
     45000  -4862143.8      51973.454     -4810170.3      2838.3553     -579.54511      86534.675    
     45100  -4861562.9      50589.063     -4810973.8      2762.7514     -2994.9755      86679.854    
     45200  -4862916.6      51505.972     -4811410.6      2812.8254     -4076.3212      86444.266    
     45300  -4862967.7      51023.615     -4811944        2786.4831      6476.3786      86148.728    
     45400  -4862865.1      50295.797     -4812569.3      2746.7357      177.53156      86309.964    
     45500  -4863159.2      50491.644     -4812667.6      2757.4313      16.559037      86482.748    
     45600  -4862267.5      51070.89      -4811196.6      2789.0648      675.5548       86452.247    
     45700  -4862739.1      52212.507     -4810526.6      2851.4104     -799.29613      86444.349    
     45800  -4862883        52424.561     -4810458.4      2862.991      -2633.1078      86526.191    
     45900  -4862339.3      51208.496     -4811130.8      2796.5797     -1421.0463      86568.616    
     46000  -4863472.3      51311.429     -4812160.8      2802.2011     -1983.7735      86481.63     
     46100  -4862899        50419.034     -4812480        2753.4659      2948.1808      86250.913    
     46200  -4862305.3      51357.94      -4810947.3      2804.7411      5410.4835      86211.461    
     46300  -4862332.9      51839.703     -4810493.2      2831.051      -1285.1786      86523.325    
     46400  -4862292.5      51657.951     -4810634.6      2821.1252     -5758.3153      86787.455    
     46500  -4861838.4      51021.11      -4810817.3      2786.3463      484.06125      86561.374    
     46600  -4862958.3      51256.335     -4811702        2799.1923      2643.4334      86256.168    
     46700  -4863252.9      50454.987     -4812797.9      2755.4294      3708.0766      86223.374    
     46800  -4862582.4      49910.362     -4812672.1      2725.6865     -2649.8244      86451.367    
     46900  -4862569.8      50951.749     -4811618.1      2782.5584     -2561.046       86524.1      
     47000  -4862728.4      51528.819     -4811199.6      2814.0731      1010.9417      86462.615    
     47100  -4862119.5      51317.341     -4810802.2      2802.5239      1366.0093      86454.75     
     47200  -4862591.4      52220.598     -4810370.8      2851.8523     -401.53022      86538.009    
     47300  -4861838.3      51348.801     -4810489.5      2804.242      -2758.3639      86657.996    
     47400  -4862167        50912.021     -4811255        2780.3887     -1880.8073      86638.608    
     47500  -4863202.1      51356.977     -4811845.1      2804.6885      1395.5633      86426.903    
     47600  -4862171.5      49839.799     -4812331.7      2721.833       3123.1093      86277.353    
     47700  -4862734        50476.68      -4812257.3      2756.6141      1903.9537      86327        
     47800  -4862087.3      51075.027     -4811012.2      2789.2908     -1562.3596      86502.466    
     47900  -4861985.2      51585.634     -4810399.6      2817.1758     -3706.9286      86625.632    
     48000  -4861718.3      51326.554     -4810391.7      2803.0271     -802.34511      86569.384    
     48100  -4861811.8      50786.357     -4811025.4      2773.526       679.22217      86438.427    
     48200  -4862575.7      50187.245     -4812388.4      2740.8075      4884.7639      86303.195    
     48300  -4863434.5      51172.689     -4812261.8      2794.6242     -393.51514      86405.418    
     48400  -4861589.1      50160.702     -4811428.4      2739.358      -1510.5014      86556.199    
     48500  -4861936.2      51134.603     -4810801.6      2792.5443     -728.09738      86579.245    
     48600  -4860996.8      50280.617     -4810716.2      2745.9067      1397.3871      86497.3      
     48700  -4862365.5      51532.197     -4810833.3      2814.2575      2686.2828      86440.028    
     48800  -4862982.7      51055.915     -4811926.8      2788.247      -1761.8441      86533.9      
     48900  -4863246        50454.279     -4812791.8      2755.3907     -4080.3553      86565.822    
     49000  -4862904.3      51125.96      -4811778.4      2792.0723      2804.4376      86362.503    
     49100  -4862276        51616.56      -4810659.5      2818.8647      2038.1979      86365.296    
     49200  -4861981.2      51143.58      -4810837.6      2793.0345     -1311.0939      86601.477    
     49300  -4862250.5      51329.623     -4810920.9      2803.1947     -3784.3851      86714.935    
     49400  -4862027.3      51188.387     -4810838.9      2795.4815      289.901        86518.409    
     49500  -4862538.7      51797.182     -4810741.5      2828.7288      1384.808       86338.612    
     49600  -4863023.9      51661.98      -4811361.9      2821.3452      966.51477      86381.503    
     49700  -4863381        51287.324     -4812093.7      2800.8847     -3661.2053      86577.728    
     49800  -4862374.6      50616.09      -4811758.5      2764.2275     -1121.6591      86545.429    
     49900  -4861791        51402.336     -4810388.6      2807.1656      2917.7378      86439.871    
     50000  -4862389.5      52210.034     -4810179.4      2851.2754     -2041.7868      86575.933    
Loop time of 342.176 on 8 procs for 10000 steps with 6144 atoms

Performance: 2.525 ns/day, 9.505 hours/ns, 29.225 timesteps/s, 179.557 katom-step/s
98.7% CPU use with 8 MPI tasks x 1 OpenMP threads

MPI task timing breakdown:
Section |  min time  |  avg time  |  max time  |%varavg| %total
---------------------------------------------------------------
Pair    | 40.642     | 42.466     | 44.292     |  19.1 | 12.41
Kspace  | 265.26     | 267.33     | 272.94     |  13.6 | 78.13
Neigh   | 2.3087     | 2.3941     | 2.4811     |   3.5 |  0.70
Comm    | 23.416     | 27.118     | 29.052     |  32.7 |  7.93
Output  | 0.19802    | 0.19817    | 0.19896    |   0.1 |  0.06
Modify  | 1.8933     | 1.9136     | 1.9359     |   0.9 |  0.56
Other   |            | 0.7573     |            |       |  0.22

Nlocal:            768 ave         775 max         759 min
Histogram: 1 0 0 2 1 1 0 0 0 3
Nghost:        5867.75 ave        5879 max        5859 min
Histogram: 1 1 0 1 2 1 0 1 0 1
Neighs:         195977 ave      205124 max      187945 min
Histogram: 2 0 0 1 1 1 2 0 0 1

Total # of neighbors = 1567813
Ave neighs/atom = 255.1779
Neighbor list builds = 460
Dangerous builds = 0

# Unfix the previous fix to prepare for the next loop iteration
unfix 1

# Dump settings will be cleared with the unfix command, so we remove it
undump 1

# Next iteration
next temp
jump SELF loop_temperature

# Set velocities for initial temperature of ${temp} K
velocity all create ${temp} 87287 loop geom
velocity all create 3000 87287 loop geom

# Apply NPT ensemble with P = 1 atm, T = ${temp} K, timestep = 1.0 fs, temperature damping = 100 fs (100x timestep), pressure damping = 1000 fs (1000x timestep)
fix 1 all npt temp ${temp} ${temp} 100.0 aniso 1.0 1.0 1000.0
fix 1 all npt temp 3000 ${temp} 100.0 aniso 1.0 1.0 1000.0
fix 1 all npt temp 3000 3000 100.0 aniso 1.0 1.0 1000.0
thermo 100
thermo_style custom step pe ke etotal temp press vol

# Output dump
dump 1 all custom 100 dump_${temp}K.lammpstrj id element x y z vx vy vz
dump 1 all custom 100 dump_3000K.lammpstrj id element x y z vx vy vz
dump_modify 1 element Ce O

# Run the simulation for 10000 steps
run 10000
Ewald initialization ...
  using 12-bit tables for long-range coulomb (src/kspace.cpp:342)
  G vector (1/distance) = 0.30836445
  estimated absolute RMS force accuracy = 0.035805988
  estimated relative force accuracy = 0.00010782867
  KSpace vectors: actual max1d max3d = 5756 14 12194
                  kxmax kymax kzmax  = 14 14 14
Generated 0 of 1 mixed pair_coeff terms from geometric mixing rule
Per MPI rank memory allocation (min/avg/max) = 29.01 | 29.01 | 29.01 Mbytes
   Step         PotEng         KinEng         TotEng          Temp          Press          Volume    
     50000  -4862389.5      54933.348     -4807456.2      3000          -604.64194      86575.933    
     50100  -4860442.8      54411.35      -4806031.4      2971.4928      1379.1213      86685.715    
     50200  -4858416.1      53702.364     -4804713.8      2932.7739     -537.76637      86929.823    
     50300  -4857541.1      54397.347     -4803143.7      2970.7281     -1464.9785      87076.65     
     50400  -4857064.7      54964.394     -4802100.3      3001.6954      1100.9171      87082.189    
     50500  -4857007.2      55206.183     -4801801        3014.8999     -40.369045      87073.926    
     50600  -4857747.8      55288.506     -4802459.3      3019.3957     -2701.5765      87111.593    
     50700  -4857877.2      54399.448     -4803477.8      2970.8428      3713.5445      86999.192    
     50800  -4858415.7      54818.5       -4803597.2      2993.728       922.31739      86862.057    
     50900  -4858015.8      54983.176     -4803032.6      3002.7212      1545.3601      86913.018    
     51000  -4856584.3      55204.672     -4801379.7      3014.8174     -3100.8114      87184.459    
     51100  -4856463        54961.412     -4801501.5      3001.5326     -5171.4018      87275.592    
     51200  -4856956.9      54712.643     -4802244.3      2987.9469      1318.2468      87006.757    
     51300  -4858439.2      55271.123     -4803168        3018.4464      4401.8616      86720.489    
     51400  -4857943.2      54458.212     -4803485        2974.052       4219.4078      86760.124    
     51500  -4858565.9      55105.929     -4803459.9      3009.4249     -3137.7546      87013.312    
     51600  -4857653.8      54846.01      -4802807.8      2995.2303     -2731.999       87077.88     
     51700  -4857057.6      55649.166     -4801408.4      3039.0919      939.15715      86959.316    
     51800  -4856996.4      55262.807     -4801733.6      3017.9923      4786.2033      86851.159    
     51900  -4857476.6      54901.915     -4802574.7      2998.2833     -861.40313      86975.5      
     52000  -4858448.4      55255.235     -4803193.2      3017.5787     -2159.0606      87029.821    
     52100  -4858193.7      54934.941     -4803258.7      3000.087       794.25849      86899.113    
     52200  -4858081.1      54800.755     -4803280.3      2992.7589      2004.3165      86817.137    
     52300  -4858324.1      55545.941     -4802778.2      3033.4547      2061.896       86927.278    
     52400  -4858369.4      56282.398     -4802087        3073.6738     -2900.6271      87137.544    
     52500  -4857562.9      55660.388     -4801902.5      3039.7048     -1126.8291      87112.254    
     52600  -4857782        55248.632     -4802533.4      3017.2181      591.36183      86906.643    
     52700  -4858569.2      54733.472     -4803835.7      2989.0844      1553.8047      86762.212    
     52800  -4858371        54496.268     -4803874.7      2976.1303     -1002.5669      86843.265    
     52900  -4858673.7      55424.822     -4803248.9      3026.8402     -2524.9695      86987.9      
     53000  -4857660.3      55150.893     -4802509.4      3011.8805      543.17174      87060.42     
     53100  -4858101.1      55833.947     -4802267.1      3049.1832     -271.23608      87081.957    
     53200  -4857470.2      54984.468     -4802485.7      3002.7917     -2052.5714      87032.92     
     53300  -4857846.4      54704.9       -4803141.5      2987.5241      3201.2959      86886.815    
     53400  -4858796.1      55213.498     -4803582.6      3015.2994     -2276.9511      86921.541    
     53500  -4858915.2      55118.325     -4803796.9      3010.1019     -914.49388      86941.9      
     53600  -4857992.2      54880.957     -4803111.2      2997.1388      801.38524      86951.006    
     53700  -4857146.5      54975.393     -4802171.1      3002.2961      1549.4691      86976.256    
     53800  -4857244.1      55438.031     -4801806        3027.5615     -1024.5103      87134.783    
     53900  -4856992.5      54572.033     -4802420.5      2980.268      -1157.6085      87172.534    
     54000  -4858464.5      54878.03      -4803586.4      2996.979      -1429.4867      86966.984    
     54100  -4858778.9      54973.881     -4803805        3002.2136      3955.9406      86686.853    
     54200  -4858192.9      54500.892     -4803692        2976.3828      2526.2786      86704.368    
     54300  -4857637.2      54168.69      -4803468.6      2958.2408     -955.70872      87016.615    
     54400  -4857166.8      54246.036     -4802920.8      2962.4647     -1606.3033      87191.065    
     54500  -4857245.3      54596.883     -4802648.5      2981.6251     -564.17828      87025.589    
     54600  -4858214.5      55673.475     -4802541.1      3040.4195      3861.043       86786.658    
     54700  -4858338.4      55127.345     -4803211.1      3010.5945      1514.6399      86799.645    
     54800  -4858902.7      54438.923     -4804463.8      2972.9986     -3379.6612      86958.55     
     54900  -4858244.7      54085.834     -4804158.9      2953.7159     -1665.4955      86933.292    
     55000  -4857944.7      54597.333     -4803347.3      2981.6496      3862.8258      86768.199    
     55100  -4857670.5      54517.977     -4803152.5      2977.3159      3280.3225      86808.69     
     55200  -4857969.9      55040.925     -4802928.9      3005.8749      685.09341      86963.065    
     55300  -4857836.5      55524.137     -4802312.3      3032.264      -2850.7396      87077.524    
     55400  -4857754.8      56556.066     -4801198.7      3088.6193      127.08084      87067.91     
     55500  -4857428.6      56018.452     -4801410.1      3059.2593     -2354.4258      87089.283    
     55600  -4857324.2      54354.395     -4802969.8      2968.3824     -2452.8983      87060.406    
     55700  -4858463.4      55219.409     -4803244        3015.6222     -388.78191      86871.975    
     55800  -4858004        54776.74      -4803227.3      2991.4473      3703.0345      86755.948    
     55900  -4858143.9      55020.958     -4803122.9      3004.7845      2002.4751      86876.505    
     56000  -4857935.2      55035.77      -4802899.4      3005.5934     -961.7238       87010.799    
     56100  -4857213.7      54987.902     -4802225.8      3002.9792     -566.79597      87048.371    
     56200  -4857542        55812.233     -4801729.8      3047.9973     -745.08717      87028.422    
     56300  -4857166        54694.217     -4802471.8      2986.9407      1177.3744      86996.098    
     56400  -4858776.7      55011.228     -4803765.4      3004.2532      465.51668      86939.195    
     56500  -4858542.7      54777.269     -4803765.4      2991.4762      962.11464      86877.474    
     56600  -4858639.2      55355.071     -4803284.1      3023.031      -1478.9187      86924.443    
     56700  -4856803.6      54037.124     -4802766.4      2951.0557     -192.81301      87008.174    
     56800  -4856968.6      54761.079     -4802207.6      2990.5921     -642.59203      87025.237    
     56900  -4857324.4      56331.546     -4800992.9      3076.3579     -1850.3146      86984.08     
     57000  -4856610.2      55531.964     -4801078.2      3032.6914      2266.5637      86962.433    
     57100  -4857103.8      54597.756     -4802506        2981.6728     -1905.9015      87024.91     
     57200  -4858433        55162.767     -4803270.3      3012.5289     -1209.2942      86970.675    
     57300  -4857888.4      54414.824     -4803473.5      2971.6825      866.69491      86864.453    
     57400  -4858494.6      54901.592     -4803593        2998.2657      2956.1083      86835.86     
     57500  -4857852.4      54377.871     -4803474.5      2969.6645     -1145.0077      86940.524    
     57600  -4856719.4      54032.846     -4802686.6      2950.8221      1904.8485      86927.513    
     57700  -4857323.3      55457.736     -4801865.6      3028.6377     -953.25105      86999.551    
     57800  -4857289.1      55205.902     -4802083.2      3014.8846     -3357.0625      87090.843    
     57900  -4858580.5      55088.561     -4803491.9      3008.4764     -3662.1838      87019.135    
     58000  -4858507.1      54382.942     -4804124.2      2969.9414      3528.0239      86772.14     
     58100  -4858998        55250.739     -4803747.3      3017.3332      4032.0914      86756.314    
     58200  -4857313.8      54134.673     -4803179.1      2956.383       649.93303      86996.747    
[...]
     88500  -4843695.4      65725.036     -4777970.4      3589.3517      1236.568       88365.933    
     88600  -4843335.4      66373.453     -4776961.9      3624.7628      1770.2079      88423.129    
     88700  -4843060.6      66346.157     -4776714.4      3623.2722     -2371.8994      88594.731    
     88800  -4842940.4      66291.038     -4776649.3      3620.262      -2924.6291      88663.207    
     88900  -4843356.3      66519.629     -4776836.7      3632.7457      1443.1911      88534.515    
     89000  -4843888.5      65725.563     -4778163        3589.3805      953.08382      88413.327    
     89100  -4844679.7      65569.24      -4779110.5      3580.8434      367.16336      88342.915    
     89200  -4843541.9      64925.082     -4778616.8      3545.6649      2725.5171      88375.841    
     89300  -4843683.1      65975.369     -4777707.8      3603.0228      835.14952      88513.67     
     89400  -4843335.6      66202.831     -4777132.8      3615.4449     -2800.2016      88670.942    
     89500  -4842773.7      66104.341     -4776669.3      3610.0662     -946.64781      88680.636    
     89600  -4843198.7      66655.61      -4776543.1      3640.1719     -1269.5576      88529.27     
     89700  -4842273.1      65239.968     -4777033.2      3562.8614      4637.5229      88371.392    
     89800  -4843607.8      65178.722     -4778429.1      3559.5166      1688.2091      88388.218    
     89900  -4844710.4      66367.922     -4778342.5      3624.4608     -2586.9993      88529.087    
     90000  -4842856.7      65939.388     -4776917.4      3601.0578      1794.2093      88610.418    
Loop time of 342.977 on 8 procs for 10000 steps with 6144 atoms

Performance: 2.519 ns/day, 9.527 hours/ns, 29.156 timesteps/s, 179.137 katom-step/s
98.6% CPU use with 8 MPI tasks x 1 OpenMP threads

MPI task timing breakdown:
Section |  min time  |  avg time  |  max time  |%varavg| %total
---------------------------------------------------------------
Pair    | 40.094     | 42.149     | 44.083     |  19.3 | 12.29
Kspace  | 265.55     | 267.57     | 272.04     |  11.4 | 78.01
Neigh   | 2.7577     | 2.8368     | 2.927      |   3.4 |  0.83
Comm    | 24.949     | 27.31      | 29.268     |  30.0 |  7.96
Output  | 0.20109    | 0.20127    | 0.20205    |   0.1 |  0.06
Modify  | 2.0977     | 2.121      | 2.1428     |   1.1 |  0.62
Other   |            | 0.7919     |            |       |  0.23

Nlocal:            768 ave         775 max         759 min
Histogram: 1 0 0 1 0 3 1 0 0 2
Nghost:           5866 ave        5879 max        5858 min
Histogram: 2 1 1 0 1 1 1 0 0 1
Neighs:         191047 ave      198225 max      181450 min
Histogram: 1 0 0 1 1 1 1 1 1 1

Total # of neighbors = 1528377
Ave neighs/atom = 248.75928
Neighbor list builds = 541
Dangerous builds = 0

# Unfix the previous fix to prepare for the next loop iteration
unfix 1

# Dump settings will be cleared with the unfix command, so we remove it
undump 1

# Next iteration
next temp
jump SELF loop_temperature

# Set velocities for initial temperature of ${temp} K
velocity all create ${temp} 87287 loop geom
velocity all create 3800 87287 loop geom

# Apply NPT ensemble with P = 1 atm, T = ${temp} K, timestep = 1.0 fs, temperature damping = 100 fs (100x timestep), pressure damping = 1000 fs (1000x timestep)
fix 1 all npt temp ${temp} ${temp} 100.0 aniso 1.0 1.0 1000.0
fix 1 all npt temp 3800 ${temp} 100.0 aniso 1.0 1.0 1000.0
fix 1 all npt temp 3800 3800 100.0 aniso 1.0 1.0 1000.0
thermo 100
thermo_style custom step pe ke etotal temp press vol

# Output dump
dump 1 all custom 100 dump_${temp}K.lammpstrj id element x y z vx vy vz
dump 1 all custom 100 dump_3800K.lammpstrj id element x y z vx vy vz
dump_modify 1 element Ce O

# Run the simulation for 10000 steps
run 10000
Ewald initialization ...
  using 12-bit tables for long-range coulomb (src/kspace.cpp:342)
  G vector (1/distance) = 0.30817608
  estimated absolute RMS force accuracy = 0.036600548
  estimated relative force accuracy = 0.00011022146
  KSpace vectors: actual max1d max3d = 5760 14 12194
                  kxmax kymax kzmax  = 14 14 14
Generated 0 of 1 mixed pair_coeff terms from geometric mixing rule
Per MPI rank memory allocation (min/avg/max) = 29.01 | 29.01 | 29.01 Mbytes
   Step         PotEng         KinEng         TotEng          Temp          Press          Volume    
     90000  -4842856.7      69582.241     -4773274.5      3800           3672.8565      88610.418    
     90100  -4840683.5      68837.427     -4771846        3759.3245      910.38629      88730.528    
     90200  -4838896.6      68544.783     -4770351.8      3743.3427     -182.37576      89001.51     
     90300  -4837056.3      68310.136     -4768746.2      3730.5282     -6259.5602      89257.172    
     90400  -4837112.5      69630.209     -4767482.3      3802.6196     -2012.1085      89187.547    
     90500  -4837468.5      70330.944     -4767137.5      3840.8879      2919.1258      89018.871    
     90600  -4837238.9      69256.991     -4767981.9      3782.2375      2069.3078      89028.907    
     90700  -4837937.5      68715.688     -4769221.8      3752.6761     -995.37878      89148.938    
     90800  -4838351.4      69259.879     -4769091.5      3782.3953      394.59284      89095.081    
     90900  -4837585.7      70675.006     -4766910.7      3859.6776      5959.6802      88886.762    
     91000  -4836999.2      70392.308     -4766606.8      3844.239       5386.8374      88967.811    
     91100  -4837305.4      69826.95      -4767478.5      3813.3639     -4689.5202      89377.861    
     91200  -4837527.6      69245.721     -4768281.8      3781.6221     -8865.9628      89554.867    
     91300  -4837342.2      69028.068     -4768314.1      3769.7357      2229.0565      89127.049    
     91400  -4838219        71639.216     -4766579.8      3912.3347      8920.0484      88700.047    
     91500  -4837818        71463.004     -4766355        3902.7115      4989.4922      88820.393    
     91600  -4837171.1      69214.788     -4767956.3      3779.9328     -5588.1812      89407.262    
     91700  -4837030.4      68996.29      -4768034.1      3768.0003     -11461.199      89679.881    
     91800  -4836870.4      69570.29      -4767300.1      3799.3473     -4149.5594      89236.81     
     91900  -4837566.2      70233.817     -4767332.4      3835.5836      8883.2645      88630.947    
     92000  -4839465.1      69950.089     -4769515.1      3820.0888      5679.9581      88655.06     
     92100  -4837778.5      67760.552     -4770017.9      3700.5145     -2000.4107      89060.167    
     92200  -4838154.9      69340.333     -4768814.5      3786.789      -6158.4101      89309.278    
     92300  -4837070.2      69396.596     -4767673.6      3789.8616     -1013.3759      89229.573    
     92400  -4837562        70391.271     -4767170.7      3844.1824      1367.7897      89107.362    
     92500  -4836517.2      68690.268     -4767827        3751.2879      854.6752       89129.496    
     92600  -4838841        69124.871     -4769716.1      3775.0223     -1196.4961      89100.973    
     92700  -4839744        69385.578     -4770358.4      3789.2599      1747.723       88900.825    
     92800  -4839984.9      70563.73      -4769421.2      3853.6007      3567.4033      88769.759    
     92900  -4838148        69350.108     -4768797.9      3787.3228      5632.6623      88856.614    
     93000  -4837646.5      69547.693     -4768098.8      3798.1133     -2015.6698      89174.048    
     93100  -4836042.4      69224.743     -4766817.7      3780.4764     -3320.7794      89428.425    
     93200  -4834233.1      69316.228     -4764916.9      3785.4726     -17.054108      89506.415    
     93300  -4836680.2      71427.424     -4765252.8      3900.7684     -2035.2998      89418.734    
     93400  -4837824.5      71131.627     -4766692.9      3884.6145      1794.8066      89066.281    
     93500  -4838052.1      70018.766     -4768033.3      3823.8393      7427.5739      88805.151    
     93600  -4837059.8      67930.361     -4769129.5      3709.7881      2843.8965      88891.135    
     93700  -4837718        68904.691     -4768813.3      3762.9979     -433.35474      89216.755    
     93800  -4836170.9      68810.402     -4767360.5      3757.8486     -3932.6971      89414.239    
     93900  -4836028.3      69477.992     -4766550.3      3794.3068      502.93602      89268.852    
     94000  -4836778.9      70071.531     -4766707.4      3826.7209      3747.8545      89058.484    
     94100  -4837076.4      69469.615     -4767606.7      3793.8493      3866.4714      89038.739    
     94200  -4837044        68202.24      -4768841.8      3724.6359     -3308.8304      89226.114    
     94300  -4837321.6      68547.251     -4768774.4      3743.4775     -1698.0641      89286.269    
     94400  -4838592.1      70175.796     -4768416.3      3832.415      -2660.9635      89109.065    
     94500  -4838223.9      70125.793     -4768098.1      3829.6843      4475.4583      88858.585    
     94600  -4837650        69245.501     -4768404.5      3781.6101      3866.833       88831.069    
     94700  -4840011.5      70312.827     -4769698.7      3839.8985     -4354.1342      89069.863    
     94800  -4839162.4      68357.633     -4770804.7      3733.1221     -3726.1381      89200.065    
     94900  -4838453.6      68775.642     -4769677.9      3755.9503      73.365818      89074.48     
     95000  -4837916.8      69249.858     -4768667        3781.848       447.8426       88885.235    
     95100  -4837569.2      69198.454     -4768370.8      3779.0407      5270.4427      88848.298    
     95200  -4836436.5      68569.778     -4767866.7      3744.7077      434.44028      89096.021    
     95300  -4835882.3      69134.49      -4766747.8      3775.5476     -1006.655       89391.979    
     95400  -4835834.8      70314.375     -4765520.4      3839.983      -2999.7475      89492.104    
     95500  -4834569.8      68961.113     -4765608.7      3766.0792      1709.8386      89314.143    
     95600  -4836817.1      69026.777     -4767790.3      3769.6652      65.973364      89072.153    
     95700  -4837713.1      69632.578     -4768080.5      3802.749       1751.1708      88934.613    
     95800  -4836638.1      68884.308     -4767753.8      3761.8847      916.01311      88981.303    
     95900  -4835984.9      69035.179     -4766949.7      3770.124      -70.365861      89134.165    
     96000  -4836820.3      70510.365     -4766310        3850.6863     -3109.015       89388.213    
     96100  -4835596.7      69427.098     -4766169.6      3791.5274     -6997.9261      89460.74     
     96200  -4836148.3      69163.905     -4766984.4      3777.154       714.33878      89217.737    
     96300  -4837450.8      68998.743     -4768452.1      3768.1342     -1585.7512      88979.9      
     96400  -4838888.2      69682.549     -4769205.7      3805.4779      3656.8001      88809.13     
     96500  -4839078.3      69889.708     -4769188.6      3816.7913      1491.4601      88887.007    
     96600  -4837627.7      70171.197     -4767456.5      3832.1638     -151.51223      89167.205    
     96700  -4836457.9      69998.665     -4766459.2      3822.7416     -5351.2874      89436.75     
     96800  -4836999.9      70303.872     -4766696        3839.4095     -5998.4689      89365.486    
     96900  -4838706.7      70458.73      -4768248        3847.8665      828.15732      88978.204    
     97000  -4839792.2      70686.241     -4769105.9      3860.2912      3069.0656      88703.311    
     97100  -4838359.1      68714.191     -4769644.9      3752.5943      4808.2301      88771.057    
     97200  -4838517.1      69247.081     -4769270        3781.6964     -2984.4587      89087.208    
     97300  -4837714.2      70337.078     -4767377.2      3841.2229     -1862.172       89218.578    
     97400  -4837398.2      70725.145     -4766673        3862.4159     -771.63537      89245.016    
     97500  -4837415.1      70307.726     -4767107.4      3839.6199     -1621.9586      89185.228    
     97600  -4837367.4      69202.032     -4768165.3      3779.2361     -97.624281      89079.521    
     97700  -4837950.9      69365.976     -4768585        3788.1894      2802.6253      88973.133    
     97800  -4836893.6      68992.082     -4767901.5      3767.7704      2654.7408      88970.62     
     97900  -4835596.2      69650.255     -4765945.9      3803.7143      1415.2855      89149.243    
     98000  -4835470.7      69476.861     -4765993.9      3794.245      -2274.5876      89346.688    
     98100  -4836109.8      68859.881     -4767250        3760.5507     -1659.4936      89363.621    
     98200  -4837270        69079.286     -4768190.7      3772.5328     -1217.8778      89146.538    
     98300  -4837796.5      69364.737     -4768431.7      3788.1217      3607.2901      88841.38     
     98400  -4837473.1      69169.09      -4768304        3777.4372      3044.6635      88821.98     
     98500  -4836658.2      68534.35      -4768123.9      3742.773       1020.3738      89116.426    
     98600  -4837039.1      69721.052     -4767318.1      3807.5807     -3872.3411      89436.802    
     98700  -4835985.4      69663.621     -4766321.8      3804.4443     -5097.9218      89492.26     
     98800  -4835783.3      69686.58      -4766096.7      3805.6981      792.91466      89297.646    
     98900  -4837660.1      70968.799     -4766691.3      3875.7222      2693.3529      89036.39     
     99000  -4838287.9      70191.76      -4768096.1      3833.2868      2855.8431      88896.874    
     99100  -4839055.3      70222.782     -4768832.5      3834.981       1451.496       88986.072    
     99200  -4838069.1      69719.848     -4768349.3      3807.5149     -1695.573       89188.633    
     99300  -4836884        69971.247     -4766912.8      3821.2442     -266.19347      89280.235    
     99400  -4835846.1      69052.074     -4766794.1      3771.0467      1737.8876      89251.312    
     99500  -4836963.1      69994.273     -4766968.8      3822.5017     -485.15836      89217.768    
     99600  -4838102.3      70455.187     -4767647.2      3847.673      -1098.043       89195.351    
     99700  -4837248        68420.461     -4768827.5      3736.5533     -1994.5911      89193.829    
     99800  -4838230.1      68695.881     -4769534.2      3751.5944     -195.9215       89107.367    
     99900  -4837875.9      69785.588     -4768090.3      3811.1051      1143.2262      89017.538    
    100000  -4836088.9      69334.245     -4766754.6      3786.4565     -147.07633      89114.1      
Loop time of 341.54 on 8 procs for 10000 steps with 6144 atoms

Performance: 2.530 ns/day, 9.487 hours/ns, 29.279 timesteps/s, 179.891 katom-step/s
98.7% CPU use with 8 MPI tasks x 1 OpenMP threads

MPI task timing breakdown:
Section |  min time  |  avg time  |  max time  |%varavg| %total
---------------------------------------------------------------
Pair    | 40.88      | 42.342     | 44.027     |  17.0 | 12.40
Kspace  | 264.21     | 266.43     | 272.46     |  14.6 | 78.01
Neigh   | 2.8357     | 2.9509     | 3.1239     |   5.5 |  0.86
Comm    | 22.333     | 26.847     | 29.083     |  38.2 |  7.86
Output  | 0.23062    | 0.23206    | 0.23463    |   0.3 |  0.07
Modify  | 1.9445     | 1.9641     | 1.9912     |   1.2 |  0.58
Other   |            | 0.7719     |            |       |  0.23

Nlocal:            768 ave         777 max         760 min
Histogram: 1 1 1 0 2 1 0 0 0 2
Nghost:        5869.25 ave        5886 max        5861 min
Histogram: 2 0 3 1 0 1 0 0 0 1
Neighs:         190010 ave      199972 max      183310 min
Histogram: 3 1 0 0 0 2 0 0 0 2

Total # of neighbors = 1520084
Ave neighs/atom = 247.40951
Neighbor list builds = 555
Dangerous builds = 0

# Unfix the previous fix to prepare for the next loop iteration
unfix 1

# Dump settings will be cleared with the unfix command, so we remove it
undump 1

# Next iteration
next temp
jump SELF loop_temperature

# Set velocities for initial temperature of ${temp} K
velocity all create ${temp} 87287 loop geom
velocity all create 4000 87287 loop geom

# Apply NPT ensemble with P = 1 atm, T = ${temp} K, timestep = 1.0 fs, temperature damping = 100 fs (100x timestep), pressure damping = 1000 fs (1000x timestep)
fix 1 all npt temp ${temp} ${temp} 100.0 aniso 1.0 1.0 1000.0
fix 1 all npt temp 4000 ${temp} 100.0 aniso 1.0 1.0 1000.0
fix 1 all npt temp 4000 4000 100.0 aniso 1.0 1.0 1000.0
thermo 100
thermo_style custom step pe ke etotal temp press vol

# Output dump
dump 1 all custom 100 dump_${temp}K.lammpstrj id element x y z vx vy vz
dump 1 all custom 100 dump_4000K.lammpstrj id element x y z vx vy vz
dump_modify 1 element Ce O

# Run the simulation for 10000 steps
run 10000
Ewald initialization ...
  using 12-bit tables for long-range coulomb (src/kspace.cpp:342)
  G vector (1/distance) = 0.3081301
  estimated absolute RMS force accuracy = 0.036826188
  estimated relative force accuracy = 0.00011090097
  KSpace vectors: actual max1d max3d = 5768 14 12194
                  kxmax kymax kzmax  = 14 14 14
Generated 0 of 1 mixed pair_coeff terms from geometric mixing rule
Per MPI rank memory allocation (min/avg/max) = 29.01 | 29.01 | 29.01 Mbytes
   Step         PotEng         KinEng         TotEng          Temp          Press          Volume    
    100000  -4836088.9      73244.465     -4762844.4      4000           1858.3021      89114.1      
    100100  -4834174.7      72638.187     -4761536.5      3966.8902      2513.981       89292.194    
    100200  -4832715.6      72582.06      -4760133.5      3963.825      -5617.3478      89713.011    
    100300  -4830601.3      71770.423     -4758830.9      3919.5002     -2238.734       89960.273    
    100400  -4830824.3      73330.016     -4757494.3      4004.6721     -2746.0121      89937.24     
    100500  -4830759.1      73948.498     -4756810.6      4038.4484      3516.2258      89716.063    
    100600  -4831797.3      74482.129     -4757315.2      4067.5909      581.29248      89618.904    
    100700  -4831764.7      72602.725     -4759162        3964.9536      511.75008      89631.309    
    100800  -4832877.8      73631.188     -4759246.6      4021.1196      310.16372      89667.675    
    100900  -4830934.9      72170.019     -4758764.9      3941.3228      4130.3734      89657.592    
    101000  -4830164.4      72975.169     -4757189.3      3985.2933     -330.47528      89787.305    
    101100  -4830393.3      73144.863     -4757248.4      3994.5606     -1175.49        89840.458    
    101200  -4831601.1      73877.591     -4757723.5      4034.5761      326.52988      89802.463    
    101300  -4831294.2      72727.305     -4758566.9      3971.7571     -2540.2349      89817.074    
    101400  -4832189        72800.475     -4759388.5      3975.753      -2041.5444      89736.028    
    101500  -4832720.8      72034.467     -4760686.3      3933.9201      1557.0255      89532.94     
    101600  -4833040        72639.3       -4760400.7      3966.951       4036.9215      89343.419    
    101700  -4830896.2      72254.439     -4758641.8      3945.9331      6935.9103      89413.072    
    101800  -4831186.5      73318.273     -4757868.2      4004.0308     -2138.8007      89821.354    
    101900  -4830373.1      73069.406     -4757303.7      3990.4398     -6506.133       90160.624    
    102000  -4829613        72775.258     -4756837.7      3974.3758     -2309.6522      90091.987    
    102100  -4830817.8      74068.946     -4756748.9      4045.0263      2863.3301      89824.613    
    102200  -4831647.8      73681.468     -4757966.3      4023.8655      807.62378      89609.289    
    102300  -4831505.6      72226.464     -4759279.1      3944.4053      3589.097       89468.491    
    102400  -4831880        72630.01      -4759250        3966.4436      1555.1643   